LAMMPS data file via write_data, version 29 Sep 2021, timestep = 10000

8704 atoms
16 atom types
7808 bonds
13 bond types
5312 angles
8 angle types
4608 dihedrals
4 dihedral types

-20.5 20.5 xlo xhi
-20.5 20.5 ylo yhi
-20.5 20.5 zlo zhi

Masses

1 15.599
2 1.008
3 1e-16
4 11.611
5 18.598
6 31.666
7 13.6
8 15.599
9 6.541
10 0.4
11 0.4
12 0.4000000000000003
13 0.4000000000000031
14 0.4
15 0.4
16 0.4

Bond Coeffs # harmonic

1 517.627 0.9572
2 500 0.24034
3 441.922 1.323
4 233.031 1.818
5 374.88 1.57
6 637.07 1.437
7 500 0
8 500 0
9 500 0
10 500 0
11 500 0
12 500 0
13 500 0

Angle Coeffs # harmonic

1 37.9505 104.52
2 93.3317 107.1
3 82.935 111.7
4 91.3002 103.5
5 103.967 102.6
6 94.2878 113.6
7 115.798 118.5
8 80.1864 125.6

Dihedral Coeffs # opls

1 0 0 0.315966 0
2 0 0 0.346797 0
3 7.83293 -2.49044 -0.763623 0
4 0 0 -0.003585 0

Atoms # full

231 58 2 0.55733 -14.571615017965057 -11.641332580029754 -16.34645725562526 0 0 0
4098 649 8 1.326101 -7.396077881395141 -20.4166790665348 -17.68526475772674 0 1 0
842 211 2 0.55733 -19.194557625842663 -11.977948958227579 -19.38160475529282 1 1 0
7682 649 15 -1.856101 -7.356834399484769 -20.443744376281085 -17.72465397948597 0 1 0
3504 610 4 2.099183 -17.31686738874015 -16.763701629043926 -15.869135278714861 0 0 0
3505 610 5 1.211919 -16.326288729155227 -17.50272283519787 -16.261262234832806 0 0 0
3506 610 5 1.211919 -18.175997345098498 -17.0698725137285 -16.823375636348736 0 0 0
3507 610 5 1.211919 -17.678327156811243 -17.124813062418095 -14.64288500981959 0 0 0
3508 610 6 3.18259 -16.85624954694971 -14.999323716941133 -15.940694161921948 0 0 0
3509 610 7 1.601296 -17.31260140431323 -14.446638292048023 -14.601922442264359 0 0 0
3510 610 8 1.326101 -15.424361572247467 -15.075757058189135 -15.826331181736577 0 0 0
3511 610 8 1.326101 -17.481246747155843 -14.551609816205092 -17.20396650119846 0 0 0
3512 610 6 3.18259 -18.637322544678696 -13.551578046193544 -14.560220781540957 0 0 0
3602 616 6 3.18259 -16.61189977000149 -11.412389624718697 -20.400533857485637 0 0 0
7102 610 12 -1.371919 -20.3466752257184 -15.228952325696037 -13.234960072936078 0 0 0
5061 837 9 1.31043 -14.705885966860688 -13.564594038714999 -18.305575586756834 0 0 0
7088 610 11 -1.749183 -17.299972798267437 -16.72230784847246 -15.824427432501057 0 0 0
7089 610 12 -1.371919 -16.34749367236958 -17.50513225130312 -16.288976147164817 0 0 0
7090 610 12 -1.371919 -18.096035682212456 -17.038176409144317 -16.84955691681911 0 0 0
7091 610 12 -1.371919 -17.75147201046024 -17.103488803864728 -14.60465967180505 0 0 0
7092 610 13 -2.16259 -16.823124343595637 -14.94844029715729 -15.990082979056403 0 0 0
7093 610 14 -2.261296 -17.33682906453786 -14.3993150277156 -14.662666214785093 0 0 0
7094 610 15 -1.856101 -15.434714854972112 -15.052550785669256 -15.819134038283613 0 0 0
7095 610 15 -1.856101 -17.51319623534409 -14.501300943115357 -17.26734830250522 0 0 0
7096 610 13 -2.16259 -18.69579290848296 -13.506220193463689 -14.422507656694663 0 0 0
4099 649 8 1.326101 -9.554093831472992 -19.35159932581082 -18.244630248543224 0 1 0
8645 837 16 -0.31043 -14.687472308414627 -13.552102883871733 -18.277775148113502 0 0 0
232 58 3 -1.11466 -14.61804591984596 -11.800508036973167 -15.531059925633675 0 0 0
7101 610 12 -1.371919 -18.628315557151932 -14.226609384532 -12.004620369996488 0 0 0
5178 58 10 -1.708246 -14.68199100777406 -12.079736590102131 -15.471439081594726 0 0 0
3515 610 4 2.099183 -19.46503581814666 -14.08485090923065 -13.113887355687528 0 0 0
229 58 1 1.708246 -14.648156480249561 -12.031244146949268 -15.476378147628937 0 0 0
230 58 2 0.55733 -14.575487139291567 -11.292722469058685 -14.87324872618849 0 0 0
7099 610 11 -1.749183 -19.481955277995507 -14.095937328219527 -13.09655223589045 0 0 0
5180 60 10 -1.708246 -13.64104578558425 -14.12508187794054 -11.717489286662472 0 0 0
7186 616 13 -2.16259 -16.573046236937042 -11.518241935477043 -20.485700074533224 0 0 0
3514 610 8 1.326101 -18.557625893209497 -12.171894372293574 -14.514915110867536 0 0 0
5495 375 10 -1.708246 -15.022692098909008 -20.328565148174302 -20.086471434297575 0 0 0
3518 610 5 1.211919 -20.332105180339312 -15.17777582903866 -13.227871505620255 0 0 0
3513 610 8 1.326101 -19.59264786103208 -14.119415924079242 -15.528321820935421 0 0 0
7188 616 15 -1.856101 -16.013984504112116 -12.134526595106017 -19.382840167334898 0 0 0
6282 556 13 -2.16259 -13.630580471853776 -18.764267830684478 -14.181952114360017 0 1 0
6283 556 14 -2.261296 -12.680185938799697 -17.45763144707938 -14.262808079950899 0 1 0
7097 610 15 -1.856101 -19.5368623278419 -14.185883180279188 -15.50563213154728 0 0 0
6273 555 15 -1.856101 -13.014770253971 -12.296655856844128 -17.981182403209548 0 0 0
3517 610 5 1.211919 -18.635482745826888 -14.18709678011168 -12.00379694247451 0 0 0
2696 556 5 1.211919 -16.199338601921863 -18.78863556617839 -13.774011746285685 0 1 0
2701 556 8 1.326101 -14.096260950967 -19.10142043860867 -15.613148723003857 0 1 0
7098 610 15 -1.856101 -18.593314829095142 -12.16434992298274 -14.537546254552625 0 0 0
2708 556 5 1.211919 -9.63973209120385 -15.507086107154628 -15.939512433596821 0 1 0
6280 556 12 -1.371919 -16.223821957545034 -18.810471998541992 -13.74199148619009 0 1 0
6292 556 12 -1.371919 -9.683657793775332 -15.50668436256676 -15.94083418809304 0 1 0
2685 555 8 1.326101 -9.490427362670705 -10.538638688239455 -15.430366325107254 0 0 0
6281 556 12 -1.371919 -15.307135772653874 -17.094404115154763 -13.714917273046604 0 1 0
237 60 1 1.708246 -13.637507947833836 -14.171300173983616 -11.690646446259747 0 0 0
2697 556 5 1.211919 -15.342770445100758 -17.060877763390035 -13.775377738618735 0 1 0
3604 616 8 1.326101 -16.0345274793657 -12.15067282255961 -19.423047938150376 0 0 0
7885 663 12 -1.371919 -5.874218852168649 -19.1534334206653 -10.979620125045688 0 1 0
6275 555 12 -1.371919 -9.456145571360084 -12.438839662050986 -18.690941278647472 0 0 0
6279 556 12 -1.371919 -15.08993295643305 -18.293754539589287 -11.985867505885992 0 1 0
4094 649 7 1.601296 -7.781432581464373 -19.163675945727487 -20.03896250260848 0 1 0
2976 574 5 1.211919 -16.257083271582786 -12.49967192462858 -11.806955367249838 0 0 0
5781 522 12 -1.371919 -1.127181483373015 -19.077918996719653 -20.150504025918202 0 0 0
2691 555 5 1.211919 -9.444739672202308 -12.382412703350939 -18.631104007954367 0 0 0
6560 574 12 -1.371919 -16.246492631298818 -12.584312814420834 -11.847555821911195 0 0 0
4301 663 5 1.211919 -5.880181074396589 -19.150437252737333 -10.998393147440776 0 1 0
617 155 1 1.708246 -18.269185885724863 -17.56750162266077 -12.163848647489145 1 0 0
1203 301 2 0.55733 -1.1628015221936263 -10.328741266824153 -11.830953234140086 0 0 0
6290 556 12 -1.371919 -10.479405353792949 -15.142627549850353 -14.118244690234487 0 1 0
2706 556 5 1.211919 -10.483739555374795 -15.16488234688021 -14.097004899109766 0 1 0
7683 649 15 -1.856101 -9.594261835353304 -19.355092932299662 -18.236161897331364 0 1 0
3393 602 8 1.326101 -0.4260171558807725 -14.006841445393503 -20.484133827256052 0 0 1
6274 555 11 -1.749183 -10.653939159799712 -12.598273498416292 -18.88561688881717 0 0 0
2699 556 7 1.601296 -12.768889509077948 -17.43285215326267 -14.301244215835538 0 1 0
367 92 2 0.55733 -7.765833431955884 -12.192689542300585 -10.903405527259359 0 1 0
6562 574 12 -1.371919 -15.218356146733818 -10.965474092670165 -13.095021593499995 0 0 0
1955 489 2 0.55733 -11.11422036788412 -14.2455984570021 -11.32254737194561 0 1 0
2690 555 4 2.099183 -10.610766458642972 -12.728764202799185 -18.84327549735412 0 0 0
1500 375 3 -1.11466 -14.734394569824794 -20.2165695493043 -19.97362541097995 0 0 0
5347 227 10 -1.708246 -10.582036344854274 -16.73557944799757 -19.777146510889505 0 0 0
6559 574 11 -1.749183 -15.521332323795544 -11.449953900060763 -11.735238055298018 0 0 0
908 227 3 -1.11466 -10.594423708856677 -16.69253409357435 -20.098647569301395 0 0 0
905 227 1 1.708246 -10.478354923547792 -16.71054103649371 -19.890437195496105 0 0 0
2684 555 7 1.601296 -11.205296316173584 -11.929710466088705 -16.258017368974237 0 0 0
7678 649 14 -2.261296 -7.866621802883867 -19.118295916241397 -20.052538188905768 0 1 0
2698 556 6 3.18259 -13.596646223547554 -18.79621884106141 -14.293702086450235 0 1 0
6286 556 13 -2.16259 -11.348192568320114 -17.428876657020233 -15.120327785078516 0 1 0
2702 556 6 3.18259 -11.317324369773141 -17.41079787136292 -15.009663541462732 0 1 0
3516 610 5 1.211919 -20.428945894918137 -13.230103991651632 -12.935884336902424 0 0 0
2978 574 5 1.211919 -15.279596975456066 -10.995964135328308 -13.037699180167658 0 0 0
2687 555 6 3.18259 -11.71576316469067 -11.665459335225947 -17.74177833007223 0 0 0
6405 564 15 -1.856101 -15.28888192301815 -15.180100820409837 -19.936889820354537 0 0 1
6271 555 13 -2.16259 -11.730737409521913 -11.61222526334227 -17.83323866596834 0 0 0
2821 564 8 1.326101 -15.226869853535593 -15.151723643719592 -19.978717870966722 0 0 1
2975 574 4 2.099183 -15.426956697214449 -11.42709320798328 -11.731600022069783 0 0 0
2707 556 5 1.211919 -11.719664792811646 -14.843805532242332 -15.69124556371172 0 1 0
6289 556 11 -1.749183 -10.844452424588095 -15.718949969745703 -15.176015217152688 0 1 0
2705 556 4 2.099183 -10.814374783026642 -15.670739147542054 -15.202933786378331 0 1 0
6265 555 12 -1.371919 -12.755139689464945 -10.532896864942085 -14.091280902637445 0 0 0
6291 556 12 -1.371919 -11.776503513779744 -14.779781019911496 -15.654414184447662 0 1 0
5213 93 10 -1.708246 -5.079184809845335 -20.03140364517711 -14.138127210113796 0 1 0
2681 555 5 1.211919 -12.730987228120329 -10.619475941245751 -13.988127789731328 0 0 0
2695 556 5 1.211919 -15.064682419110357 -18.335707263339184 -12.021961590805029 0 1 0
5275 155 10 -1.708246 -18.251894253114433 -17.546013727532213 -12.132431242007629 1 0 0
1514 379 2 0.55733 -18.730764269129082 -19.700650293612895 -18.676697980473982 1 0 1
4460 673 4 2.099183 -4.654365019010624 -13.452674445066297 -17.982430625842103 0 0 0
2694 556 4 2.099183 -15.144287811171218 -18.30603469597355 -13.399817051137582 0 1 0
6278 556 11 -1.749183 -15.142190592550657 -18.33713793174614 -13.428664088763597 0 1 0
8044 673 11 -1.749183 -4.691703757174459 -13.432507838501689 -17.98513390493541 0 0 0
2700 556 8 1.326101 -12.923382278899423 -19.82518876967502 -13.601338780765357 0 1 0
6284 556 15 -1.856101 -12.844146420841236 -19.8241845438501 -13.690967729952302 0 1 0
844 211 3 -1.11466 -19.062585645982065 -12.155458265330394 -18.579460457723115 1 1 0
355 89 2 0.55733 -17.06232738742891 -15.863955235715004 -10.572931804071933 0 1 0
620 155 3 -1.11466 -18.384380662655442 -17.508268284386148 -12.365420105978343 1 0 0
618 155 2 0.55733 -18.92023293525738 -16.876610483702205 -12.2864147137102 1 0 0
238 60 2 0.55733 -13.353481698362662 -15.084196055277005 -11.686908031214971 0 0 0
5331 211 10 -1.708246 -19.155683810303497 -11.954487400904311 -18.361580979116088 1 1 0
4959 735 9 1.31043 -3.5600563273280272 -11.283667531107255 -14.223942156070061 0 0 0
5773 522 14 -2.261296 -3.2199613420153512 -20.012386221974403 -18.538431358460677 0 0 0
2693 555 5 1.211919 -10.551451823199297 -14.051205709612326 -18.79899724300471 0 0 0
2692 555 5 1.211919 -10.835966251464015 -12.419026401032587 -20.136068472499968 0 0 0
6276 555 12 -1.371919 -10.821508179502455 -12.459592527571527 -20.157037974497285 0 0 0
6277 555 12 -1.371919 -10.564315838497391 -14.042807720905452 -18.811070495725552 0 0 0
2184 522 4 2.099183 -3.0244363111436194 -18.688453916752298 -16.214305402849774 0 0 0
5092 868 9 1.31043 -7.499838288372486 -12.803367603117664 -13.041873155724598 0 0 0
8676 868 16 -0.31043 -7.410456147267344 -12.817382770952642 -13.019822241433475 0 0 0
2703 556 8 1.326101 -11.321408731814902 -17.49137912458626 -16.39356675650695 0 1 0
906 227 2 0.55733 -10.810165963529426 -15.916550138279296 -20.30764106043062 0 0 0
6287 556 15 -1.856101 -11.264107919652536 -17.498576085942005 -16.4334196493637 0 1 0
5769 522 12 -1.371919 -2.6917095636487267 -17.54989087101962 -16.751906872940385 0 0 0
61 16 1 1.708246 -4.311306474404958 -17.566218397719762 -12.596338786492536 0 0 0
240 60 3 -1.11466 -13.667952644918737 -14.334464904086156 -11.864066095765208 0 0 0
239 60 2 0.55733 -14.06972232264697 -14.057235511605903 -12.537935900180862 0 0 0
5609 489 10 -1.708246 -10.110663720976326 -14.303492669843953 -11.318741892132088 0 1 0
6285 556 15 -1.856101 -14.100776776729775 -19.10852801989809 -15.582022632330402 0 1 0
8043 673 15 -1.856101 -3.9323744486822827 -11.779346069288387 -16.073084912931563 0 0 0
841 211 1 1.708246 -19.105654734664846 -11.974320359614246 -18.430150738246333 1 1 0
1515 379 2 0.55733 -18.62524214732909 -18.847339613783678 -19.922748073046588 1 0 1
6977 602 15 -1.856101 -0.44881609660562677 -13.91561211309141 -20.425847612410998 0 0 1
7393 630 14 -2.261296 -3.4413529391828503 -12.437525567239463 -10.73600681791603 0 0 0
4097 649 6 3.18259 -8.161235063136234 -19.429853318986726 -18.574611837827657 0 1 0
5030 806 9 1.31043 -10.465989947880312 -19.937756845220882 -12.330844504899408 0 1 0
7199 617 15 -1.856101 -1.0998916721190766 -19.780807016270973 -11.36307106412958 0 0 0
7396 630 13 -2.16259 -2.699448619734143 -13.327084338313874 -11.859754734362012 0 0 0
6270 555 15 -1.856101 -10.337335260825824 -12.293048877025916 -14.033129136133152 0 0 0
7887 663 13 -2.16259 -8.050867044389332 -17.856063869345906 -10.781787827356814 0 1 0
6288 556 15 -1.856101 -10.1835222927296 -18.00742231848859 -14.36357776667693 0 1 0
3809 630 7 1.601296 -3.4376070492452997 -12.341250231730555 -10.687102955249895 0 0 0
2186 522 5 1.211919 -2.50242528282399 -18.765187880818093 -15.001182413237375 0 0 0
8690 882 16 -0.31043 -5.516845971598456 -18.0815976739429 -14.255858832529828 0 0 0
8614 806 16 -0.31043 -10.446907123431473 -19.86651546209185 -12.381405256030668 0 1 0
7397 630 15 -1.856101 -2.533932898208842 -12.540713766271868 -13.046862313066462 0 0 0
2704 556 8 1.326101 -10.19020651346193 -17.989680788243643 -14.419379716564473 0 1 0
4457 673 6 3.18259 -5.153395433407844 -12.118480082797419 -16.877720311754324 0 0 0
1775 444 2 0.55733 -6.279407247827436 -10.563609575259493 -13.831833826376059 0 0 0
187 47 2 0.55733 -0.01601800831876321 -18.47985630236922 -12.957439875209932 0 0 0
8543 735 16 -0.31043 -3.6070319780796516 -11.297187572211898 -14.185609108836623 0 0 0
6268 555 14 -2.261296 -11.183248816222301 -11.94240554052333 -16.31796806687901 0 0 0
4454 673 7 1.601296 -5.529315813219956 -10.92656129126163 -17.634110834347155 0 0 0
3812 630 6 3.18259 -2.7719240172748276 -13.375534812182055 -11.692818297670009 0 0 0
7398 630 15 -1.856101 -3.6642338223270543 -14.568229747592842 -12.167039650223431 0 0 0
1954 489 2 0.55733 -10.01912911434517 -15.19668703032404 -11.756253854415112 0 1 0
4305 663 8 1.326101 -7.336180104144044 -16.743368511104414 -11.3286624420571 0 1 0
4983 759 9 1.31043 -11.384242253379137 -17.784809038555625 -18.371206855485127 0 1 1
2188 522 6 3.18259 -2.5843544000498713 -20.16522491141513 -17.31105583519036 0 0 0
2187 522 5 1.211919 -4.262432349202701 -18.37861941787837 -16.132121510535374 0 0 0
4303 663 6 3.18259 -8.058595537136068 -17.823479469067497 -10.772177598626547 0 1 0
1516 379 3 -1.11466 -18.35168191639746 -19.19503788751151 -19.218012605016696 1 0 1
369 93 1 1.708246 -5.024312044144151 -20.103661538439866 -14.095099783646598 0 1 0
1956 489 3 -1.11466 -10.329029934388759 -14.507374564755041 -11.40814053976952 0 1 0
63 16 2 0.55733 -4.558846908025188 -18.04335979347767 -11.804183925812408 0 0 0
2197 522 5 1.211919 -1.128874429669122 -19.043026974053276 -20.09593178525671 0 0 0
366 92 2 0.55733 -8.840368463200848 -13.24167684188095 -11.095495647139392 0 1 0
5106 882 9 1.31043 -5.486074652347574 -18.036554145008335 -14.276520040399015 0 0 0
2689 555 8 1.326101 -13.00945292224779 -12.265873818136102 -18.036188387462012 0 0 0
1499 375 2 0.55733 -14.502752433449716 -20.40498537556398 -19.196960141465176 0 0 0
2190 522 8 1.326101 -1.1262925003425637 -19.88125999180042 -17.382948625629204 0 0 0
2189 522 7 1.601296 -3.280417553647841 -20.050693138965396 -18.59814257613915 0 0 0
5772 522 13 -2.16259 -2.506477366291389 -20.137043254749976 -17.227515068034098 0 0 0
3814 630 8 1.326101 -3.6724959230013643 -14.533308523572572 -12.166787248813058 0 0 0
1854 464 2 0.55733 -13.858265873187127 -17.557679094519397 -10.890806286550585 0 1 0
62 16 2 0.55733 -4.556671796022363 -16.659771917239937 -12.41865354506445 0 0 0
8047 673 12 -1.371919 -5.593810051567799 -13.914017349114188 -18.77911789489071 0 0 0
4459 673 8 1.326101 -3.9378773787172276 -11.813072108615405 -16.136099367694626 0 0 0
7402 630 12 -1.371919 -1.010646063917102 -15.151300160384249 -11.837059480124106 0 0 0
7399 630 11 -1.749183 -1.2751977306172042 -14.092645845038698 -11.093982259952154 0 0 0
741 186 1 1.708246 -4.934326859186683 -15.27019379304635 -14.957297510135678 0 0 0
7685 649 12 -1.371919 -7.649201473214924 -17.759205702812906 -16.41718497127106 0 1 0
7401 630 12 -1.371919 -0.32672089192086645 -13.256581537592036 -11.459853996478854 0 0 0
5774 522 15 -1.856101 -1.0458214468140985 -19.819656974519557 -17.387529539272105 0 0 0
5770 522 12 -1.371919 -2.5585926742097027 -18.757380616800695 -15.019912862115838 0 0 0
3817 630 5 1.211919 -0.32708708739353826 -13.21636753822749 -11.536332573303161 0 0 0
3815 630 4 2.099183 -1.198668360661962 -14.029408832185794 -11.083356503174054 0 0 0
744 186 3 -1.11466 -4.8329523464361035 -15.053400668839448 -14.958326801476586 0 0 0
4101 649 5 1.211919 -7.687529463325137 -17.79465261288507 -16.451953450149645 0 1 0
7687 649 12 -1.371919 -5.99661019307488 -18.021971944878196 -17.600639728960942 0 1 0
1513 379 1 1.708246 -18.124024048389657 -19.139430010882162 -19.160202606458775 1 0 1
3813 630 8 1.326101 -2.4353196942580886 -12.662448860576482 -12.904098200466 0 0 0
7686 649 12 -1.371919 -7.865356394146237 -16.695284641663278 -18.04281746645101 0 1 0
742 186 2 0.55733 -5.2581416675982595 -14.477968224282778 -15.383135377846237 0 0 0
4462 673 5 1.211919 -3.769984672071913 -13.026783402112288 -18.741708733022946 0 0 0
4100 649 4 2.099183 -7.4067147349754805 -17.90793776753996 -17.77112552811898 0 1 0
8567 759 16 -0.31043 -11.328202437710468 -17.84135795317052 -18.40376698523309 0 1 1
6269 555 15 -1.856101 -9.489769618632918 -10.508901110706702 -15.433042139155909 0 0 0
1953 489 1 1.708246 -10.165101403819726 -14.360107506497808 -11.316795531075984 0 1 0
619 155 2 0.55733 -18.181006020647594 -17.971147523471064 -13.026293666236525 1 0 0
843 211 2 0.55733 -18.803165366441377 -12.855260562428882 -18.21155656098003 1 1 0
5768 522 11 -1.749183 -2.998718215323375 -18.700058401758078 -16.252226888962497 0 0 0
64 16 3 -1.11466 -4.413233836240156 -17.479147759235342 -12.39818410509055 0 0 0
4102 649 5 1.211919 -7.910635086148811 -16.721887985121896 -18.055490823020115 0 1 0
4461 673 5 1.211919 -4.1825312978137745 -14.559647632252307 -17.35198264619719 0 0 0
2977 574 5 1.211919 -14.28183421335574 -11.529525206690247 -11.214760387387809 0 0 0
6561 574 12 -1.371919 -14.355062692368437 -11.559593024675126 -11.235900960653668 0 0 0
368 92 3 -1.11466 -8.111767875077309 -12.868349070968323 -11.244284269017736 0 1 0
2686 555 8 1.326101 -10.302258047677356 -12.295664218871153 -14.034552485497505 0 0 0
3615 617 8 1.326101 -1.0884209441908053 -19.782846488819114 -11.370142516048391 0 0 0
365 92 1 1.708246 -7.979455401865811 -12.97487740100241 -11.413761287028528 0 1 0
7681 649 13 -2.16259 -8.233407493047022 -19.43902136738805 -18.48987601118469 0 1 0
5564 444 10 -1.708246 -6.253110817145436 -11.134500781854651 -13.035700043454202 0 0 0
1776 444 3 -1.11466 -6.119939708047716 -10.919274966973068 -13.096684310049733 0 0 0
1774 444 2 0.55733 -5.55395090125842 -10.737404704953953 -12.514486484266843 0 0 0
1773 444 1 1.708246 -6.261526407355721 -11.105489314703766 -13.043687190405215 0 0 0
5306 186 10 -1.708246 -4.945281923813563 -15.309520062810725 -14.908754872160346 0 0 0
5212 92 10 -1.708246 -7.948511653990585 -12.919225053381279 -11.446061908336949 0 1 0
4103 649 5 1.211919 -6.058040074763814 -18.04810185286981 -17.59774398239089 0 1 0
2185 522 5 1.211919 -2.6668508133198423 -17.547765984887185 -16.78350561997292 0 0 0
5499 379 10 -1.708246 -18.1512544566112 -19.167154469236944 -19.19947538165872 1 0 1
4463 673 5 1.211919 -5.570918824654493 -13.881002202240698 -18.812481324069243 0 0 0
3818 630 5 1.211919 -1.0327899792305966 -15.10066344818666 -11.819038359259567 0 0 0
5771 522 12 -1.371919 -4.374343459678609 -18.395192868948385 -16.086389154747643 0 0 0
7684 649 11 -1.749183 -7.398431076591424 -17.9579535947129 -17.751571762504447 0 1 0
6267 555 13 -2.16259 -10.596482196314579 -11.300266681824322 -15.038191470622 0 0 0
4458 673 8 1.326101 -6.019705979916864 -12.862024040445116 -15.936222958260084 0 0 0
743 186 2 0.55733 -4.115480367449727 -15.002626487042258 -14.539968089115758 0 0 0
2683 555 6 3.18259 -10.58159289712881 -11.307363053972956 -15.085665362094709 0 0 0
5136 16 10 -1.708246 -4.367644363005116 -17.63325812348626 -12.648535356320698 0 0 0
7890 663 15 -1.856101 -8.702280709080217 -18.7063365831011 -11.785153641001614 0 1 0
8045 673 12 -1.371919 -4.196679047747494 -14.561519815494336 -17.326075088313697 0 0 0
1497 375 1 1.708246 -14.926444251126506 -20.334752830108066 -20.050291039461275 0 0 0
8046 673 12 -1.371919 -3.826424477718655 -13.061302852012613 -18.709056137801447 0 0 0
8041 673 13 -2.16259 -5.1395295180875715 -12.16167977173093 -16.783968738739222 0 0 0
7889 663 15 -1.856101 -7.361689485804539 -16.778111652650022 -11.362132245487846 0 1 0
8038 673 14 -2.261296 -5.555339318912301 -10.983051506030202 -17.577643479555526 0 0 0
4306 663 8 1.326101 -8.62101336629956 -18.67775317979401 -11.725491215888253 0 1 0
8042 673 15 -1.856101 -6.032371449877177 -12.874660369947145 -15.854710564374512 0 0 0
356 89 3 -1.11466 -16.46127556752835 -15.308642538513526 -10.422137878726716 0 1 0
354 89 2 0.55733 -15.87737106579609 -14.988384602019929 -10.921005339776885 0 1 0
7100 610 12 -1.371919 -20.418464899542933 -13.266748463817656 -12.94731546056902 0 0 0
372 93 3 -1.11466 -4.893102852610098 -20.269347420510968 -14.206323288403839 0 1 0
371 93 2 0.55733 -4.081530673476565 -20.091823290631083 -14.253337348713858 0 1 0
907 227 2 0.55733 -10.704971765455102 -17.414934290839614 -20.496503855257057 0 0 0
1980 495 3 -1.11466 -13.479980668951987 -19.44692609572865 -2.4293011917704774 0 0 0
6777 589 13 -2.16259 -9.527914124550444 -18.72623382358483 -0.7056193185352478 0 0 0
3103 583 6 3.18259 -15.285700018440817 -14.927154844304853 -4.9219440358845405 0 0 0
3104 583 7 1.601296 -16.883634041894716 -15.153949233874876 -4.356245510660449 0 0 0
3105 583 8 1.326101 -14.610404178543293 -16.141007139090576 -4.933596527352539 0 0 0
3107 583 6 3.18259 -18.17587507273314 -15.962688025163438 -4.870431149856262 0 0 0
3108 583 8 1.326101 -18.6567664389102 -16.647158610288034 -3.7927134326759626 0 0 0
3109 583 8 1.326101 -17.85444312394822 -16.81161234644952 -5.9373635754372724 0 0 0
3110 583 4 2.099183 -19.444232197091623 -14.688114489681261 -5.655554971269113 0 0 0
3111 583 5 1.211919 -19.983513933335345 -13.979504037158192 -4.699123578157328 0 0 0
3113 583 5 1.211919 -19.12875556919973 -13.953734254330172 -6.682089386376217 0 0 0
6687 583 13 -2.16259 -15.12846335050614 -14.991411892064635 -4.899011839940596 0 0 0
6688 583 14 -2.261296 -16.83718391798843 -15.158916115686997 -4.404889365093772 0 0 0
6689 583 15 -1.856101 -14.573746708014811 -16.248407664037604 -4.920310155085549 0 0 0
6691 583 13 -2.16259 -18.153674558997633 -15.951511371128111 -4.9323967461415705 0 0 0
6692 583 15 -1.856101 -18.57382538196691 -16.609614258252343 -3.7913865863010345 0 0 0
6693 583 15 -1.856101 -17.877268723975014 -16.829731112947638 -5.983403029363258 0 0 0
6694 583 11 -1.749183 -19.494327319979515 -14.691482176616647 -5.671682898988889 0 0 0
6695 583 12 -1.371919 -20.03914066690311 -13.991573698121012 -4.717893850967766 0 0 0
6697 583 12 -1.371919 -19.048046987411 -13.936201304579315 -6.63628342117133 0 0 0
3099 583 4 2.099183 -15.529699340470202 -14.646188363377416 -6.8327604744576655 0 0 0
3101 583 5 1.211919 -16.5056525676818 -13.637618170651827 -7.059917726436691 0 0 0
3106 583 8 1.326101 -14.681243996631002 -13.674523419249946 -4.597223050647881 0 0 0
4606 683 8 1.326101 -15.652405512860875 -10.46008938746796 -4.978887911814874 0 0 0
6683 583 11 -1.749183 -15.527804403536491 -14.709150266291172 -6.813364359541582 0 0 0
6685 583 12 -1.371919 -16.47957928684153 -13.661436359534303 -7.127120307157759 0 0 0
6690 583 15 -1.856101 -14.761919053693877 -13.690451209819507 -4.582443824430328 0 0 0
5085 861 9 1.31043 -15.377812197903248 -16.679662548103316 -9.299848147268564 0 0 0
8129 679 15 -1.856101 -15.51282987020369 -14.219636396995352 -1.6212949851450478 0 0 0
3102 583 5 1.211919 -15.72028951047555 -15.644316722009856 -7.482353133561625 0 0 0
6686 583 12 -1.371919 -15.759123315074978 -15.617766860030196 -7.529016463413433 0 0 0
3100 583 5 1.211919 -14.404235879578774 -14.26189590594569 -7.359835835847138 0 0 0
6684 583 12 -1.371919 -14.423268600460798 -14.299637714798424 -7.3600307441984425 0 0 0
533 134 1 1.708246 -16.52151036402489 -18.5083108037101 -2.932601754319619 0 0 0
8528 720 16 -0.31043 -14.596111527262444 -17.593441727782167 -3.56767238278586 0 0 0
8261 688 12 -1.371919 -19.653845754400233 -10.45378915713758 -1.884531732346375 1 0 0
536 134 3 -1.11466 -16.506225096286702 -18.553042795569304 -2.69801091821352 0 0 0
5022 798 9 1.31043 -13.347316363447185 -13.366548328249097 -3.019072931063227 0 0 0
8606 798 16 -0.31043 -13.374041781941235 -13.415308434088653 -3.041290489274599 0 0 0
5584 464 10 -1.708246 -13.822913893175539 -16.965376198159532 -10.077470040668326 0 1 0
6557 574 15 -1.856101 -16.30950504752317 -10.56381229743201 -9.29286231882563 0 0 0
3195 589 8 1.326101 -8.38244536053917 -19.411623464861986 -0.4720985798762292 0 0 0
4944 720 9 1.31043 -14.634932814802513 -17.624396415447674 -3.5749828648045066 0 0 0
7883 663 11 -1.749183 -6.625327290364254 -18.551970286572043 -10.099166734707536 0 1 0
5254 134 10 -1.708246 -16.423076459395425 -18.524561599914648 -2.9836682547922595 0 0 0
3613 617 6 3.18259 -0.9934245088949378 -19.327047959942256 -10.028478516922489 0 0 0
534 134 2 0.55733 -16.386383895264785 -19.352975737357248 -2.5027695225615587 0 0 0
7357 627 12 -1.371919 -15.443788727524087 -18.585217047460585 -5.953193431318604 0 1 0
1673 419 1 1.708246 -18.39655290094706 -18.1197103661884 -8.690027701602247 0 0 0
8127 679 13 -2.16259 -14.77864548529507 -13.26297370292489 -0.9266209361185955 0 0 0
1511 378 2 0.55733 -1.9614810643032157 -11.028142864790583 -6.240122877282136 0 0 0
4601 683 5 1.211919 -17.634239681826966 -12.317782903340257 -4.838703852878824 0 0 0
4299 663 4 2.099183 -6.6389196063938 -18.639480970638033 -10.124992770545832 0 1 0
5272 152 10 -1.708246 -11.982565507457554 -12.956638544967591 -4.250605612506929 0 0 0
606 152 2 0.55733 -12.042513233589464 -11.994548571652375 -4.634371269655445 0 0 0
1675 419 2 0.55733 -18.07276518143332 -17.41397346555872 -8.12701317240174 0 0 0
3773 627 5 1.211919 -15.452965659139485 -18.556931723573037 -6.00187882936067 0 1 0
1977 495 1 1.708246 -13.463475983852241 -19.231978185062903 -2.53295426456027 0 0 0
5615 495 10 -1.708246 -13.516158067944241 -19.184427001489784 -2.546757784877057 0 0 0
607 152 2 0.55733 -12.138166698556725 -13.441633493143543 -5.068755182926393 0 0 0
3816 630 5 1.211919 -0.9369092485800473 -14.431131446431008 -9.735408865128365 0 0 0
1979 495 2 0.55733 -14.172268969577972 -19.568184453297942 -1.983877044238122 0 0 0
3772 627 5 1.211919 -13.451617914758591 -18.695868110577493 -6.000020343390408 0 1 0
7356 627 12 -1.371919 -13.440273333038688 -18.649805214760722 -6.008725919529325 0 1 0
3770 627 4 2.099183 -14.521400547868362 -19.313311271248416 -6.51953929636766 0 1 0
3193 589 6 3.18259 -9.634190085045821 -18.840795384097635 -0.6448957479874001 0 0 0
4545 679 8 1.326101 -15.528689850037132 -14.195120312017126 -1.6629374418498362 0 0 0
7251 620 12 -1.371919 -1.8492157518286234 -10.563127182379558 -0.3407354306402613 0 0 0
4549 679 8 1.326101 -12.894981846623182 -15.288918942861985 -1.7508641320366052 0 0 0
2973 574 8 1.326101 -16.365733471475764 -10.52362120683985 -9.435504024938725 0 0 0
1509 378 1 1.708246 -1.2281414888268363 -10.424700149132773 -6.345121499885545 0 0 0
7205 617 12 -1.371919 -0.31996039797691495 -16.759408335708965 -7.621893464853963 0 0 0
605 152 1 1.708246 -11.957264635349414 -12.888483859801966 -4.308869888223497 0 0 0
8133 679 15 -1.856101 -12.889837879054006 -15.267528459821008 -1.7876327801997511 0 0 0
608 152 3 -1.11466 -12.012227058333446 -12.819590909052705 -4.530633849982789 0 0 0
1978 495 2 0.55733 -12.831367807020628 -19.947174890837445 -2.575676555767825 0 0 0
7886 663 12 -1.371919 -6.924115688636254 -19.569629311785633 -9.386052721644347 0 1 0
440 110 3 -1.11466 -8.882689226749806 -10.943414112531018 -1.8956996152553736 0 0 0
6776 589 12 -1.371919 -8.316914736127073 -17.856454861088253 -2.7933915032731087 0 0 0
8185 683 12 -1.371919 -17.672228379164064 -12.351216192017048 -4.872017852121601 0 0 0
6926 599 12 -1.371919 -19.86492255011119 -16.74139267750065 -1.2328837152236825 1 0 0
4546 679 8 1.326101 -14.356839307904131 -12.232141416639712 -1.7254277677806036 0 0 0
7394 630 15 -1.856101 -4.351186066480726 -13.91213062082181 -9.149694397532933 0 0 0
7897 663 12 -1.371919 -10.592532955739582 -18.734334455418388 -6.311755724101921 0 1 0
4543 679 6 3.18259 -14.764766091722565 -13.287477500931802 -0.9169694803205557 0 0 0
4313 663 5 1.211919 -10.615972746345774 -18.710023469618807 -6.367153535211423 0 1 0
437 110 1 1.708246 -8.975123901511568 -10.775552476273885 -2.0380055413146043 0 0 0
1853 464 1 1.708246 -13.756754943064585 -17.04483732132256 -10.090367336118414 0 1 0
7354 627 11 -1.749183 -14.516956553514518 -19.339518352819805 -6.537548220950332 0 1 0
8130 679 15 -1.856101 -14.342334560092073 -12.370411055559838 -1.7697743221708888 0 0 0