LAMMPS data file via write_data, version 23 Jun 2022, timestep = 20500000

5684 atoms
23 atom types
4948 bonds
19 bond types
8042 angles
31 angle types
7137 dihedrals
23 dihedral types

0 42.89118 xlo xhi
0 42.89118 ylo yhi
0 42.89118 zlo zhi

Masses

1 12.011
2 12.011
3 15.999
4 12.011
5 15.999
6 15.999
7 12.011
8 1.008
9 1.008
10 1.008
11 1.008
12 1.008
13 1.008
14 1.008
15 1.008
16 6.941
17 12.011
18 18.998
19 32.066
20 14.007
21 15.999
22 1.008
23 15.999

Bond Coeffs # harmonic

1 267.997 1.529
2 320.005 1.41
3 214.006 1.327
4 570.005 1.229
5 214.006 1.327
6 320.005 1.41
7 339.998 1.09
8 339.998 1.09
9 339.998 1.09
10 339.998 1.09
11 339.998 1.09
12 339.998 1.09
13 339.998 1.09
14 339.998 1.09
15 441.922 1.323
16 233.031 1.818
17 374.88 1.57
18 637.07 1.437
19 412.285 1

Angle Coeffs # harmonic

1 37.5 110.7
2 37.5 110.7
3 37.5 110.7
4 32.9947 107.8
5 32.9947 107.8
6 32.9947 107.8
7 50 109.5
8 37.5 110.7
9 37.5 110.7
10 35.0024 109.5
11 35.0024 109.5
12 32.9947 107.8
13 82.9947 116.9
14 82.9947 123.4
15 69.8972 118.2
16 82.9947 123.4
17 82.9947 116.9
18 35.0024 109.5
19 35.0024 109.5
20 35.0024 109.5
21 32.9947 107.8
22 32.9947 107.8
23 32.9947 107.8
24 93.3317 107.1
25 82.935 111.7
26 91.3002 103.5
27 103.967 102.6
28 94.2878 113.6
29 115.798 118.5
30 80.1864 125.6
31 45.7696 109.47

Dihedral Coeffs # opls

1 0.70196 0 0.935946 0
2 0.70196 0 0.935946 0
3 0.70196 0 0.935946 0
4 0.450048 0 0.599904 0
5 0.450048 0 0.599904 0
6 0.450048 0 0.599904 0
7 0.450048 0 0.599904 0
8 0.450048 0 0.599904 0
9 0.450048 0 0.599904 0
10 1.24307 0.125956 0.843929 0
11 0.297084 0 0.396033 0
12 0.297084 0 0.396033 0
13 0 5.12404 0 0
14 2.33461 5.12404 0 0
15 2.33461 5.12404 0 0
16 0 5.12404 0 0
17 0.297084 0 0.396033 0
18 0.297084 0 0.396033 0
19 0.297084 0 0.396033 0
20 0 0 0.315966 0
21 0 0 0.346797 0
22 7.83293 -2.49044 -0.763623 0
23 0 0 -0.003585 0

Atoms # full

4342 477 18 -0.16 2.325107525441997 1.9487293052126735 7.360936040527122 1 1 0
4341 477 17 0.35 2.855304897571448 0.9084558713505602 8.03106652116769 1 1 0
4344 477 18 -0.16 3.0852853290391278 1.332435986816378 9.19270937519857 1 1 0
4343 477 18 -0.16 4.00815014681686 0.6724420523214109 7.564519729496063 1 1 0
357 24 12 0.1241 1.79673414038445 4.434215752785236 9.317436216652935 1 0 0
1524 102 9 0.1009 1.0273954735595567 6.3485136222372 4.970304005340578 0 0 1
4663 498 21 -0.53 14.064945966570725 10.399123007769099 3.0110335564419732 0 0 0
355 24 10 0.1009 0.8379681704930744 5.3601965832577445 7.261089535400561 1 0 0
809 54 14 0.1074 13.944467472607792 6.9551544573119415 7.60068389725836 0 0 0
348 24 3 -0.3244 0.039226916790728 3.3937969036982123 9.362250647467583 1 0 0
1748 117 8 0.1009 13.730465909916063 12.543065113845993 10.452603655532036 0 0 0
4487 486 17 0.35 3.0063515878695886 14.27853349506333 2.792909489509747 0 0 1
1744 117 4 0.5701000000000001 13.950747962098124 10.306448562983649 7.819679564826318 0 0 0
353 24 8 0.1009 0.5034284789452563 6.680580389639598 8.42451060121607 1 0 0
2989 386 18 -0.16 7.217862240072398 2.18037504048915 8.957190893730267 0 1 0
799 54 4 0.5701000000000001 13.167963770526079 4.800140848298374 5.904701193972098 0 0 0
2988 386 18 -0.16 7.939539347883317 4.223270280610667 8.865898379678177 0 1 0
910 61 10 0.1009 9.642505444747924 6.19276042969946 8.085482206551408 0 0 0
1974 252 16 1 12.891287453491016 2.2409559295676558 7.688669035402461 0 0 0
2990 386 18 -0.16 9.021631948254779 2.6073909915172773 8.126784758040758 0 1 0
805 54 10 0.1009 10.389182198478586 5.198932924028622 2.9017044228718265 0 0 0
2987 386 17 0.35 8.255831522464803 2.9485729449414584 9.175900633093915 0 1 0
2983 386 21 -0.53 11.958571047297392 2.5231013263832565 9.481635717347235 0 1 0
803 54 8 0.1009 9.799599560489872 5.984140716417922 4.3120760018476005 0 0 0
798 54 3 -0.3244 12.313815786292079 5.02534222899651 4.907556541223251 0 0 0
796 54 1 -0.2806 10.109459184161917 5.008421272183119 3.9378319920163243 0 0 0
797 54 2 0.017 11.132360357018321 4.210527246177377 4.744863410382207 0 0 0
807 54 12 0.1241 10.573184858654571 4.060208147532116 5.668349700214129 0 0 0
806 54 11 0.1241 11.479457127443089 3.2552881077054647 4.350982692432355 0 0 0
804 54 9 0.1009 9.135718217600253 4.522643343806631 3.874996268602608 0 0 0
4453 484 21 -0.53 12.555307113218381 1.2732157724127497 5.949996903891551 0 1 0
2982 386 21 -0.53 12.228169922589094 4.940493731659441 9.832781425962649 0 1 0
2980 386 19 1.02 11.755342340786012 3.682732396141879 10.27078424655227 0 1 0
800 54 5 -0.4942 12.979402264892025 3.965213802450514 6.820574051444217 0 0 0
909 61 9 0.1009 8.96010891007541 6.2251036441304 6.509385185504546 0 0 0
5211 579 22 0.4238 12.889680001197622 5.98077234798088 3.2286355931986574 0 0 0
901 61 1 -0.2806 9.668800267408955 6.750640342681279 7.149438092363937 0 0 0
908 61 8 0.1009 10.699662107810335 6.75671089602242 6.79533780472502 0 0 0
4448 484 18 -0.16 10.563499788846059 0.7746529973543804 3.702821097853221 0 1 0
5212 579 23 -0.8476 13.053642009076528 6.538210562295675 2.4147688205278075 0 0 0
1646 110 11 0.1241 12.536685774536709 0.043666889279439264 0.21915580918676222 0 1 0
1078 72 13 0.1074 13.529572141040548 3.8686126913180985 2.401238402321092 0 0 0
2326 342 21 -0.53 0.05153878450149449 13.12101169455703 7.221057969470896 1 0 0
4450 484 19 1.02 12.722965372779578 0.13277102876234043 5.099336218816557 0 1 0
1522 102 7 -0.0453 2.880441419379239 9.78869353722302 0.23635512842183962 0 0 1
1079 72 14 0.1074 13.61967467408848 2.128881030653626 2.202242923925081 0 0 0
1481 99 11 0.1241 7.084924353376529 13.249070219095444 0.3508277573574888 0 0 1
1072 72 7 -0.0453 14.205090785677367 3.0474312919647324 2.1615810080836964 0 0 0
4452 484 21 -0.53 13.557314458649246 0.3466828006194439 3.9678329666894427 0 1 0
387 26 12 0.1241 0.7745244660054031 8.751262630205341 10.259423707945013 0 0 0
2409 348 18 -0.16 8.617525831618249 7.214119550357887 1.2755511551132264 0 0 1
801 54 6 -0.3156 14.123240845206933 5.713192744052114 5.91881523680373 0 0 0
5144 556 22 0.4238 0.37527435591772434 10.201140691630133 4.422933756631974 0 0 0
2574 359 18 -0.16 3.0669346436639997 7.051619011408459 7.1034710607675455 0 0 0
2572 359 18 -0.16 4.826612405276568 6.887485439006695 8.072921777361193 0 0 0
2573 359 18 -0.16 4.750398503656405 7.3083123604449085 5.992108166439322 0 0 0
1516 102 1 -0.2806 0.5589560781227785 7.261685575094793 4.603177982699769 0 0 1
5404 643 23 -0.8476 11.855390491313644 12.710036771227227 0.2973043359118576 0 0 0
1523 102 8 0.1009 0.5140331241727533 7.935564804882753 5.458729681497734 0 0 1
1518 102 3 -0.3244 0.6970806768934555 9.04958340708331 3.124919209678067 0 0 1
1519 102 4 0.5701000000000001 1.162306100976966 9.746969003356424 2.0395637627033194 0 0 1
5143 556 23 -0.8476 0.40615125781698863 10.901991131726374 5.135573424769638 0 0 0
1755 117 15 0.1073 14.002457615287819 8.743686357176449 5.465681945368424 0 0 0
2407 348 18 -0.16 10.618230170286395 6.95948275934434 0.6927135521486844 0 0 1
356 24 11 0.1241 0.5875714676359765 5.268486807763808 10.190875783574826 1 0 0
2582 359 17 0.35 6.142531169854448 9.378262112075465 10.638271666139117 0 0 0
386 26 11 0.1241 1.3067832098569494 10.142484622270926 9.539097689843276 0 0 0
1527 102 12 0.1241 2.470280112001098 8.088511083186065 3.79803319181215 0 0 1
2329 342 18 -0.16 3.160731913375435 13.316831338267871 7.744400658519693 1 0 0
2571 359 17 0.35 4.224004012019995 7.6298065026002195 7.157722954167676 0 0 0
2330 342 18 -0.16 2.0942465217594086 12.584978302628588 9.350202450554969 1 0 0
2420 348 18 -0.16 5.847646545821318 8.896726114893557 3.2145876633316632 0 0 1
2579 359 19 1.02 4.730145083520609 10.370380400666553 10.037320175484098 0 0 0
2578 359 21 -0.53 3.2204543372723626 9.883779272137042 6.606264284205098 0 0 0
2575 359 19 1.02 4.304932451449739 9.483155288165438 7.43591866135278 0 0 0
2576 359 20 -0.66 4.017570604097525 9.543250957689379 8.994556136848583 0 0 0
2577 359 21 -0.53 5.654268647861227 9.823899299947366 7.017031282519075 0 0 0
2581 359 21 -0.53 5.3216563287716125 11.568334493884121 9.491994010014952 0 0 0
2419 348 18 -0.16 5.3755252810332 10.764940667267814 2.2006847593784444 0 0 1
1521 102 6 -0.3156 2.308435329720411 9.190346690633032 1.3914412075453424 0 0 1
4488 486 18 -0.16 2.5977892174314317 13.40575885262828 3.719005351226099 0 0 1
2327 342 17 0.35 2.2548665160891668 13.690024497376948 8.630981086426393 1 0 0
2417 348 17 0.35 6.321099404005166 9.845920080986566 2.3906773638480865 0 0 1
5478 668 22 0.4238 6.237167382238562 12.738714729902366 8.364663753310934 0 0 0
2418 348 18 -0.16 6.385070721670786 9.309270797648423 1.2078594730135386 0 0 1
5142 556 22 0.4238 1.2865986089413812 10.858681632888704 5.607735223342829 0 0 0
5479 668 23 -0.8476 6.8004678268111896 12.897172981639672 7.553748449894832 0 0 0
2585 359 18 -0.16 7.05606791896704 9.156901003660192 9.68439110165793 0 0 0
1869 147 16 1 7.208980010023169 11.287708093795576 6.5908246841748594 0 0 0
1526 102 11 0.1241 1.564288492285216 7.123146812567854 2.708327393787102 0 0 1
1517 102 2 0.017 1.447835162120228 7.883086638092023 3.481004610059557 0 0 1
1520 102 5 -0.4942 0.6288318842388577 10.766403139297497 1.7021771978755909 0 0 1
377 26 2 0.017 0.37629203050347954 9.598307855530322 9.700831453044058 0 0 0
4485 486 21 -0.53 1.350121936395351 13.4110095222809 0.8719200888126994 0 0 1
2416 348 21 -0.53 7.550804677364006 11.089624322320713 4.306774293434878 0 0 1
4490 486 18 -0.16 3.9744749751509896 13.693146366679024 2.1293018420068224 0 0 1
383 26 8 0.1009 0.565823710631231 8.955409302759756 7.6902750993610285 0 0 0
5480 668 22 0.4238 6.759848856679339 13.864508179739703 7.303522998644438 0 0 0
5405 643 22 0.4238 12.614639303817835 12.626213970035094 0.9426840990544144 0 0 0
2412 348 21 -0.53 11.054915251217768 8.127848978399799 3.216668302318697 0 0 1
4661 498 20 -0.66 13.153494155075245 12.472178614136963 4.101366899481666 0 0 0
4670 498 18 -0.16 9.831179445130717 13.423767088509765 5.659715289509779 0 0 0
911 61 11 0.1241 8.18329016030139 7.9771680023826805 7.93465084035471 0 0 0
1745 117 5 -0.4942 14.02885442099136 9.243788611348904 8.406408400280721 0 0 0
902 61 2 0.017 9.097572463349678 8.162489483111152 7.370874454724049 0 0 0
1746 117 6 -0.3156 13.424368570897698 10.366550516847102 6.577438724884193 0 0 0
1530 102 15 0.1073 3.1298203854114486 10.832524006671324 0.4269544071585434 0 0 1
4665 498 21 -0.53 10.864037653892222 12.953567359072878 3.083078486751104 0 0 0
5246 590 22 0.4238 11.231058562149457 8.371609056803763 8.7613735466791 0 0 0
347 24 2 0.017 0.7335616579680685 4.672951517072186 9.28969623419779 1 0 0
907 61 7 -0.0453 10.213014391167786 12.225477791247505 9.729674801333946 0 0 0
346 24 1 -0.2806 0.34896081901742104 5.625536551350684 8.198408323198766 1 0 0
906 61 6 -0.3156 10.45351292032639 10.912286733940416 9.24510180145859 0 0 0
905 61 5 -0.4942 8.801273633067684 10.858933280054515 7.693821202710746 0 0 0
4660 498 19 1.02 14.04962661168354 11.800546553545466 2.9998484487864046 0 0 0
5213 579 22 0.4238 12.446040282525923 7.332362030793105 2.426753042578141 0 0 0
1971 249 16 1 10.306321720512194 12.175033929577326 1.175982638988883 0 0 0
2414 348 19 1.02 7.928476311684429 10.62331958824408 3.0169621197354983 0 0 1
4667 498 17 0.35 11.032361386414017 12.834502191960276 5.541716758133932 0 0 0
1753 117 13 0.1074 12.491763177267485 9.353656001377674 4.982317624281689 0 0 0
1754 117 14 0.1074 12.543566966884017 8.416388252899408 6.491078617348529 0 0 0
2406 348 17 0.35 9.71321098117059 7.865074321251716 1.0419069819378142 0 0 1
4669 498 18 -0.16 10.840884393954449 11.546103178370638 5.785473905106213 0 0 0
5244 590 22 0.4238 12.849516865082832 8.372945714750259 8.978669329719576 0 0 0
1747 117 7 -0.0453 13.07612580665388 9.143556949590137 5.878129379944965 0 0 0
5245 590 23 -0.8476 12.005720471008917 7.858250942420113 9.130646372579513 0 0 0
4664 498 19 1.02 11.862496168467326 13.358184791064247 4.065640549963032 0 0 0
915 61 15 0.1073 9.220996599918543 12.610190814269938 9.493038811807082 0 0 0
903 61 3 -0.3244 9.989264836632302 8.983155169686588 8.078289340860614 0 0 0
2413 348 21 -0.53 10.893338926761595 10.009199679089066 1.6317379193339585 0 0 1
912 61 12 0.1241 8.880699451730303 8.70908269771151 6.453104356132043 0 0 0
4662 498 21 -0.53 14.005685334931286 12.438547837824663 1.7020070648090886 0 0 0
2415 348 21 -0.53 8.258182361557951 11.562612676096315 2.026480897289183 0 0 1
913 61 13 0.1074 11.050406973929645 12.880750837691052 9.489902208964976 0 0 0
2411 348 20 -0.66 8.924981504767253 9.40788244534191 3.108290111648379 0 0 1
2410 348 19 1.02 10.262001202043542 8.990375909883143 2.3917982214581084 0 0 1
4668 498 18 -0.16 11.641284618836288 13.428082937575034 6.625497426652498 0 0 0
904 61 4 0.5701000000000001 9.660820742410253 10.25529628450856 8.374122467155482 0 0 0
1860 138 16 1 11.968395497801119 6.801351084619503 10.546857827951102 0 0 0
1722 115 12 0.1241 7.04524749575565 14.236407191261957 4.089285709144403 0 0 0
2541 357 17 0.35 1.4473695604504968 5.03246028702482 16.41223675872362 0 0 0
2548 357 21 -0.53 3.978586577067158 5.0813627584879235 15.88697745641074 0 0 0
2543 357 18 -0.16 1.5260512504997936 4.380004646309509 17.536036931816067 0 0 0
2545 357 19 1.02 2.9177807865000753 6.074800831937377 16.02574254456322 0 0 0
368 25 8 0.1009 5.207551419523591 2.8171433481142683 14.63436117897788 0 1 0
2554 357 18 -0.16 3.1443684884992473 4.815459246573425 12.518623186578301 0 0 0
361 25 1 -0.2806 5.59873655235603 2.176100978247874 15.424385778868643 0 1 0
370 25 10 0.1009 5.22878051242063 2.705597813738856 16.302375316865646 0 1 0
2552 357 17 0.35 2.793720056350212 6.107690828176166 12.297007602073283 0 0 0
2544 357 18 -0.16 1.3713602713058204 4.079208845859657 15.43773645057306 0 0 0
2553 357 18 -0.16 1.4919622832683381 5.931995969882598 12.143980826804524 0 0 0
369 25 9 0.1009 6.683467671872037 2.2645508754311288 15.48467685539851 0 1 0
351 24 6 -0.3156 0.7417988300887943 2.867803158370528 11.530191988793305 1 0 0
359 24 14 0.1074 0.7405403233726385 0.9779370228624595 12.143681076617375 1 0 0
352 24 7 -0.0453 0.6691713079441141 1.9471644822765637 12.637244238424453 1 0 0
2542 357 18 -0.16 0.30888118473384907 5.744387422850749 16.43367249071356 0 0 0
5347 624 23 -0.8476 6.499560958392544 5.243045702971439 14.799225418320487 0 1 0
5437 654 23 -0.8476 6.54146671725829 5.590496926874568 11.622575591436707 0 0 0
2547 357 21 -0.53 2.989364359631102 6.919523057388387 17.17961291304018 0 0 0
130 9 10 0.1009 5.267406277228019 4.57346519567379 20.788055100216855 0 1 0
5346 624 22 0.4238 5.677286234107832 4.87465046219308 15.232987156014222 0 1 0
2555 357 18 -0.16 3.329728730555648 6.2994366786319524 11.100415662800204 0 0 0
1941 219 16 1 6.765720320134421 6.287113148177049 13.348537339317987 0 0 0
362 25 2 0.017 5.086287703871434 0.729418109378461 15.315143550565583 0 1 0
129 9 9 0.1009 6.521011413990611 3.774891925698009 19.79052554668006 0 1 0
5436 654 22 0.4238 7.159987933520623 4.851282850707139 11.356128476050337 0 0 0
958 64 13 0.1074 6.323115072280564 0.26972753262426985 19.020394068173335 0 1 0
358 24 13 0.1074 1.4672528873206758 2.055435691610435 13.371712165478758 1 0 0
2546 357 20 -0.66 2.5658627864736667 6.967274933182401 14.839909354887789 0 0 0
2986 386 21 -0.53 9.509920040332432 1.2864247889698683 10.844902494918118 0 1 0
960 64 15 0.1073 4.831238748897336 0.6956080633768683 18.23741717226473 0 1 0
3834 443 18 -0.16 1.1397318650733999 14.003390283081002 21.335314907039006 0 0 0
5348 624 22 0.4238 7.156843800446569 5.510390405958291 15.503857299056959 0 1 0
363 25 3 -0.3244 3.7021224421010297 0.6242276872261828 15.295515939817458 0 1 0
3845 443 18 -0.16 0.7360524366621656 8.429209447970278 20.98436310005045 0 0 0
3839 443 19 1.02 2.827092280125456 10.072117703314772 20.64629063932776 0 0 0
121 9 1 -0.2806 5.892249230249976 3.6873250867452305 20.676578684337866 0 1 0
372 25 12 0.1241 5.497028471464464 0.18850135800814227 14.462617253087526 0 1 0
371 25 11 0.1241 5.484793670178961 0.1493598756891299 16.147504914486486 0 1 0
4338 476 18 -0.16 9.497773265664206 3.6795363483499703 19.97449082463126 0 0 0
3641 430 20 -0.66 4.599096372701733 13.99552884040945 12.228161299950314 0 0 0
2360 344 18 -0.16 8.24213024759637 1.1870911306029677 17.523660514019696 0 1 0
2979 386 18 -0.16 12.485023276129668 4.357995102005563 12.722375925165144 0 1 0
4340 476 18 -0.16 11.347383274966175 3.5287622340062255 19.071234591911335 0 0 0
4337 476 17 0.35 10.670991732149913 3.9597469565271837 20.200471540897617 0 0 0
4331 476 20 -0.66 12.560316611193286 5.6364598953680805 20.713774034475858 0 0 0
2615 361 18 -0.16 9.718409754741517 4.73485472919035 17.270852328550806 0 0 0
2612 361 17 0.35 10.223623928085928 5.165074882951531 16.13196744334298 0 0 0
4334 476 19 1.02 10.994421221281314 5.738614159974058 20.63715160098778 0 0 0
2614 361 18 -0.16 9.713643387176914 4.304860562975701 15.24946159923879 0 0 0
2613 361 18 -0.16 11.55586794700713 4.998715450208577 16.060394284531533 0 0 0
4335 476 21 -0.53 10.430452616184205 6.489971954458735 19.529766215490167 0 0 0
2978 386 18 -0.16 12.423940582204594 2.290275984497262 12.4441837365047 0 1 0
2358 344 18 -0.16 10.387414481892272 0.8252080465852365 17.646505720225896 0 1 0
2976 386 17 0.35 12.697574826286852 3.4243196385111676 11.809570443956645 0 1 0
4330 476 19 1.02 13.630014898604701 6.254695186959889 19.731666319013566 0 0 0
1129 76 4 0.5701000000000001 13.817366611861633 0.9498078907677271 17.300761461332225 0 0 0
1138 76 13 0.1074 13.44159771033479 3.2838369743658293 16.220468753206287 0 0 0
1131 76 6 -0.3156 13.171735969924464 1.2207481730854526 16.18409275734963 0 0 0
4332 476 21 -0.53 13.099525501405545 7.200808051645694 18.752585997557052 0 0 0
2609 361 19 1.02 9.770386966990324 6.9575068898876085 15.864912381399991 0 0 0
2610 361 21 -0.53 8.350978463710524 6.995767298818657 15.968428370699023 0 0 0
4339 476 18 -0.16 11.050326402141588 3.1165205505298457 21.140363373061604 0 0 0
2977 386 18 -0.16 14.013706762232017 3.40944613196464 11.72628940392372 0 1 0
2608 361 21 -0.53 10.354562057139228 7.454494517295398 11.943028059997024 0 0 0
1750 117 10 0.1009 13.737696056085921 10.838650913272666 10.931040141539189 0 0 0
5232 586 22 0.4238 9.426836531543042 0.07825128512188491 12.077164292756434 0 1 0
2606 361 20 -0.66 10.307220059127989 7.170334283669322 14.399076985534252 0 0 0
2607 361 21 -0.53 8.230557257451332 7.697201728963717 13.103993342137011 0 0 0
2985 386 21 -0.53 8.136060675527675 3.099317105297827 11.754833319831196 0 1 0
1139 76 14 0.1074 12.606361106462572 2.623944533007447 14.83311544394204 0 0 0
5118 548 22 0.4238 5.450689007780226 14.067896588384091 16.475254754752314 0 0 0
4228 469 21 -0.53 13.7316853168324 7.015397507270771 11.60363120357685 0 0 0
2604 361 18 -0.16 9.550458502186737 10.159409239216084 14.517923152597838 0 0 0
5091 539 22 0.4238 5.849518282731443 7.159652680139067 20.49599688980647 0 0 0
5092 539 23 -0.8476 5.818507173621753 7.353895746225283 19.515533740447147 0 0 0
2580 359 21 -0.53 3.9994828641577866 10.586898274921536 11.254213112619082 0 0 0
2550 357 21 -0.53 4.822315065885149 7.161892679566752 13.657638689186461 0 0 0
2584 359 18 -0.16 6.818602965754994 9.941681966864458 11.622855165370883 0 0 0
5093 539 22 0.4238 6.655533789649996 7.828421011932791 19.243114444176502 0 0 0
255 17 15 0.1073 6.660904176985903 9.87301645656913 14.079234396000562 0 0 0
4003 454 21 -0.53 13.26517127332348 9.70144685063983 16.601531336058287 0 0 0
2984 386 19 1.02 9.136645506278638 2.671725910367896 10.815896961066414 0 1 0
4004 454 19 1.02 12.019970893372365 12.950977946573786 15.748964636380373 0 0 0
2549 357 19 1.02 3.3787730782230225 7.303329499510767 13.562596644935857 0 0 0
3841 443 21 -0.53 3.3772025713099714 9.177388838177267 19.690179410760848 0 0 0
1915 193 16 1 4.374690679799707 7.939058650621134 18.462387797758428 0 0 0
380 26 5 -0.4942 0.9087828244949042 10.768368900363088 12.230468026113376 0 0 0
1931 209 16 1 6.193271246799012 13.544310600947266 18.848627382525752 0 0 0
241 17 1 -0.2806 0.684359889251912 11.413520328221761 16.538376981096103 0 0 0
251 17 11 0.1241 1.6152129221438147 9.653894843731647 17.026260798717416 0 0 0
252 17 12 0.1241 2.4557494926251775 11.10446237191246 17.732989452124308 0 0 0
2551 357 21 -0.53 2.9273898886724106 8.498495704085117 12.93809775328835 0 0 0
2006 284 16 1 2.7238463780452205 10.639058475522582 13.00879977602151 0 0 0
3643 430 21 -0.53 3.1834549507564365 12.552596055410373 13.708566941776965 0 0 0
242 17 2 0.017 1.937036489353382 10.683749861233418 16.871573290526282 0 0 0
244 17 4 0.5701000000000001 4.058370467462029 9.910486215017293 15.972448459912863 0 0 0
243 17 3 -0.3244 2.81474223914729 10.532802347510351 15.786235229479184 0 0 0
245 17 5 -0.4942 4.356994211270769 9.195003895781412 16.898633310658663 0 0 0
3640 430 19 1.02 3.9050271831684045 13.82769030130874 13.664595158637491 0 0 0
3837 443 21 -0.53 4.584969931444496 13.385165462653076 20.09759258640576 0 0 0
246 17 6 -0.3156 4.801427918155037 10.165326212809678 14.949207820969162 0 0 0
3836 443 20 -0.66 2.9200782855320293 11.569168486073975 20.240496845169652 0 0 0
249 17 9 0.1009 0.9740526626922098 12.29300312453885 15.96332211411933 0 0 0
247 17 7 -0.0453 6.263135103819278 9.943118162404115 15.091640200649588 0 0 0
3832 443 18 -0.16 1.7401109689921115 14.108866822863426 19.394103731219293 0 0 0
3831 443 17 0.35 2.1857212883562758 14.139598214542806 20.59314688308546 0 0 0
3642 430 21 -0.53 4.727906444529031 14.074742552665892 14.815305589674322 0 0 0
3648 430 18 -0.16 7.2774643718929015 12.424572704318733 11.855017075677434 0 0 0
4008 454 18 -0.16 9.335309193693037 12.778462947240344 15.979220898426176 0 0 0
254 17 14 0.1074 6.617761567933885 10.854961335854536 15.572142116512738 0 0 0
3647 430 17 0.35 7.278584035901714 13.571167013805571 12.44375403946147 0 0 0
2851 377 21 -0.53 7.331840529892716 11.818047088528038 19.15810773491884 0 0 0
3835 443 19 1.02 3.4904361715715124 12.865949066174826 20.879491387007512 0 0 0
270 18 15 0.1073 9.533132260326862 13.591868798541773 21.30634313421197 0 0 0
253 17 13 0.1074 6.696089371615952 9.215240225764472 15.777821160506546 0 0 0
2357 344 17 0.35 9.189338191258962 0.26069153357263575 17.786392234139907 0 1 0
3843 443 18 -0.16 0.5756781874017298 9.486829906455519 19.24446845693768 0 0 0
250 17 10 0.1009 0.05023724470910727 11.794491849314465 17.338907537057512 0 0 0
2008 286 16 1 11.903588489204111 8.622365582587706 17.708616946322877 0 0 0
4009 454 18 -0.16 10.312463021320177 13.141520668774417 17.712116280944088 0 0 0
2611 361 21 -0.53 10.422247823298287 7.780893192935051 16.81618634024321 0 0 0
3842 443 17 0.35 1.0540648139683673 9.638630166648905 20.51352203530244 0 0 0
1132 76 7 -0.0453 13.444388143461534 2.4572880256914864 15.509899228894195 0 0 0
2605 361 19 1.02 9.688534779854717 7.859285568385791 13.191251023690143 0 0 0
2602 361 18 -0.16 9.726716971526297 10.408458729493164 12.35891162057009 0 0 0
4000 454 19 1.02 14.008129553734143 10.96359948641331 16.258089033627588 0 0 0
4001 454 20 -0.66 13.150437496491998 12.224599678308497 16.57171333758366 0 0 0
4005 454 21 -0.53 11.784919815691891 12.40059598694987 14.43198910560033 0 0 0
3649 430 18 -0.16 7.115253295283429 13.252836068555068 13.73653768773409 0 0 0
2583 359 18 -0.16 5.853977759886469 8.138553983753384 10.96719832475462 0 0 0
2845 377 19 1.02 10.66136045158269 10.121367980199292 20.476850319024436 0 0 0
2850 377 21 -0.53 7.602133077019553 9.300689945202226 19.29189987505738 0 0 0
4007 454 17 0.35 10.471965338494549 12.486046879404022 16.585277031250513 0 0 0
2601 361 17 0.35 10.068905762589655 9.672050841333528 13.418897647242565 0 0 0
2843 377 18 -0.16 12.044081972881544 12.436387433188827 20.83840766956356 0 0 0
128 9 8 0.1009 5.19179361357059 2.8530558107357864 20.714745462275573 0 1 0
2847 377 21 -0.53 11.56639907313052 9.795225095362397 19.461967484438166 0 0 0
2603 361 18 -0.16 11.352703555711484 9.897551037606105 13.458194252374183 0 0 0
4010 454 18 -0.16 10.417128887027953 11.222207749286122 16.94906496208284 0 0 0
2846 377 20 -0.66 9.478005502533014 10.946441778200297 19.969863541518816 0 0 0
2849 377 19 1.02 7.9887117512521835 10.642775941275302 19.678453611218934 0 0 0
5438 654 22 0.4238 5.7839703091913846 5.64215631690449 10.971783380000671 0 0 0
390 26 15 0.1073 0.2281379850453106 12.900777428131951 13.361039327162377 0 0 0
3650 430 18 -0.16 8.467638308245942 14.150797492840276 12.277414095602778 0 0 0
3844 443 18 -0.16 0.29726273999032393 10.516157965481153 21.060539219437324 0 0 0
914 61 14 0.1074 10.24941130090112 12.189066925951714 10.818458302254431 0 0 0
1137 76 12 0.1241 13.488998827448864 0.05257910266016762 19.754939770740744 0 0 0
2852 377 17 0.35 7.304770148306786 10.67207809507391 21.390895792090447 0 0 0
2981 386 20 -0.66 10.255788438243625 3.7422652735020066 10.761287288948873 0 1 0
4431 483 17 0.35 4.142684216676925 5.799776028993263 23.709876179878428 0 0 0
4434 483 18 -0.16 3.64575805704068 5.685555087147578 24.94933419081312 0 0 0
1150 77 10 0.1009 3.733882819554431 5.633402711464714 28.661067738459153 0 0 0
1141 77 1 -0.2806 3.88884648513237 6.545283638864117 28.08438807377645 0 0 0
4436 483 20 -0.66 6.704196069920485 6.264516433658461 24.563441666781127 0 0 0
3334 409 18 -0.16 5.20162634367752 2.4661602005273147 27.15049717746909 0 1 0
4432 483 18 -0.16 4.478435766732072 4.5895688415960985 23.35862375141599 0 0 0
4433 483 18 -0.16 3.164343593054845 6.20740639191851 22.94449642452358 0 0 0
3332 409 17 0.35 5.58362011085212 1.6187396759327104 26.21506215357883 0 1 0
3333 409 18 -0.16 5.357206081864321 2.269189122598217 25.093032482709905 0 1 0
1148 77 8 0.1009 4.691614360222562 6.309815525883939 27.385661728997643 0 0 0
1149 77 9 0.1009 2.94914060728416 6.826281971824229 27.60889590781283 0 0 0
4437 483 21 -0.53 5.97394253450615 7.057926586645081 22.314399003480954 0 0 0
4435 483 19 1.02 5.648268822554081 7.01827876511838 23.685038234263466 0 0 0
3335 409 18 -0.16 4.760951273740804 0.5989905361849543 26.142763977015818 0 1 0
620 42 5 -0.4942 7.889996400449543 14.005265996581668 24.647547659139274 0 0 0
3952 451 18 -0.16 1.455775283656002 11.663614563280765 31.248417515945242 0 0 0
4770 505 21 -0.53 13.832714169784406 2.42569018428679 25.446870066772092 0 0 0
618 42 3 -0.3244 5.655396733182605 14.04159201211997 24.489131245928665 0 0 0
131 9 11 0.1241 6.463893942659112 3.644823080434624 22.89453165972765 0 1 0
122 9 2 0.017 6.858999286658433 3.554295762032192 21.882703332432804 0 1 0
5111 545 22 0.4238 14.176311250462987 9.971213841559015 28.78063555976811 0 0 0
3329 409 19 1.02 7.372047285987799 1.1311075562342778 26.319754988883616 0 1 0
3326 409 20 -0.66 7.634840037610809 0.5412168506158168 27.720210090932675 0 1 0
4445 483 18 -0.16 7.608955183250508 5.977610357545954 27.38925811803497 0 0 0
3331 409 21 -0.53 7.99747776430623 2.402151735615051 26.15777920805976 0 1 0
3309 408 18 -0.16 9.567997116069446 2.1173486995485895 29.88945076777557 0 0 0
4439 483 19 1.02 8.209417588395024 6.545923018222669 24.88504962387119 0 0 0
4769 505 19 1.02 13.024211831994455 3.127370826620864 24.450745783458522 0 0 0
3312 408 21 -0.53 12.678643810210925 3.4489690557079866 28.254582336085548 0 0 0
3310 408 19 1.02 11.269533266678351 3.66126697060264 28.54812189920665 0 0 0
3311 408 20 -0.66 11.034239281839199 4.8156653278341315 29.556823081527504 0 0 0
3313 408 21 -0.53 10.506182399362094 3.739145482550855 27.38032936868101 0 0 0
1872 150 16 1 9.632278561984535 3.465096057259521 25.206361003121728 0 0 0
4441 483 21 -0.53 9.056286512878254 5.383282693946041 24.921732611655674 0 0 0
3306 408 17 0.35 10.821001951773564 2.0967436116721414 29.45603510134127 0 0 0
4771 505 21 -0.53 11.580996281639473 3.2357594484408123 24.621564242375058 0 0 0
125 9 5 -0.4942 8.980513046841967 2.691770833621516 23.387473974381944 0 1 0
3314 408 19 1.02 12.019018640496384 5.899074781862366 30.06374846174678 0 0 0
3308 408 18 -0.16 10.98809962379681 0.9520407919348073 28.810868861483726 0 0 0
124 9 4 0.5701000000000001 8.483931822278624 1.904050755512483 22.539056155865698 0 1 0
3307 408 18 -0.16 11.572768970864349 1.986862444835556 30.52634892439536 0 0 0
4773 505 18 -0.16 13.34017537734927 5.7135131136910875 23.879519697157065 0 0 0
4775 505 18 -0.16 13.020050889542821 5.225836772366137 25.998106447278015 0 0 0
4772 505 17 0.35 13.519683168301693 4.809857598473763 24.829763478655167 0 0 0
3316 408 21 -0.53 12.952214608565134 6.359029414846631 29.06271851077402 0 0 0
3317 408 17 0.35 13.051542733970871 5.183040488639706 31.47483096364643 0 0 0
3319 408 18 -0.16 13.801261379282204 4.177206764207116 31.0595263059256 0 0 0
4766 505 20 -0.66 13.316702618963204 2.9261741791605043 22.947572011562986 0 0 0
123 9 3 -0.3244 7.3643241872727705 2.225368468841815 21.90116684911448 0 1 0
4442 483 17 0.35 8.110137513798351 6.965024244443309 26.629349265220316 0 0 0
126 9 6 -0.3156 8.864889522240999 0.6422810110823557 22.53746621070406 0 1 0
4444 483 18 -0.16 9.300503989256526 7.244246386432182 27.10133581614369 0 0 0
929 62 14 0.1074 12.375079956200244 13.964625048007013 24.39565355054376 0 0 0
4336 476 21 -0.53 10.42438172599429 5.958138609266343 21.95778355784354 0 0 0
135 9 15 0.1073 10.889931367911622 0.8305777212187865 22.333060353068785 0 1 0
3322 409 18 -0.16 6.431203483789655 0.041562444941287885 30.463470910109148 0 1 0
1957 235 16 1 14.186247638472487 7.431729482263595 27.75696987486443 0 0 0
4328 476 18 -0.16 13.939519462678325 8.176150676110394 21.522748141712903 0 0 0
1366 92 1 -0.2806 14.255011790892052 0.2542963615983601 31.184986235698258 0 1 0
1151 77 11 0.1241 5.21879400506786 7.529725364149101 29.586253484626713 0 0 0
1142 77 2 0.017 4.307289689259346 7.743963493757403 29.028255361469704 0 0 0
12 1 12 0.1241 1.4364148581666323 11.914032024242111 24.489333634358225 0 0 0
1152 77 12 0.1241 3.5500535371298256 7.918262911208759 29.792659130047152 0 0 0
1143 77 3 -0.3244 4.337150269597122 8.950287494840946 28.145554146885985 0 0 0