LAMMPS data file via write_data, version 29 Sep 2021, timestep = 50000

9856 atoms
18 atom types
8832 bonds
14 bond types
6080 angles
8 angle types
5184 dihedrals
4 dihedral types

-15 15 xlo xhi
-15 15 ylo yhi
-45 45 zlo zhi

Masses

1 15.599
2 1.008
3 1e-16
4 11.611
5 18.598
6 31.666
7 15.599
8 13.6
9 15.599
10 6.541
11 0.4
12 0.4
13 0.4000000000000003
14 0.4000000000000031
15 0.4
16 0.4
17 0.4
18 0.4

Bond Coeffs # harmonic

1 517.627 0.9572
2 500 0.24034
3 441.922 1.323
4 233.031 1.818
5 637.07 1.437
6 374.88 1.57
7 500 0
8 500 0
9 500 0
10 500 0
11 500 0
12 500 0
13 500 0
14 500 0

Angle Coeffs # harmonic

1 37.9505 104.52
2 93.3317 107.1
3 82.935 111.7
4 103.967 102.6
5 115.798 118.5
6 91.3002 103.5
7 94.2878 113.6
8 80.1864 125.6

Dihedral Coeffs # opls

1 0 0 0.346797 0
2 0 0 0.315966 0
3 7.83293 -2.49044 -0.763623 0
4 0 0 -0.003585 0

Atoms # full

513 129 1 1.708246 -8.732136786661767 -13.570173884095894 -36.701158950396334 0 0 0
514 129 2 0.55733 -9.1265565355777 -12.826329414902139 -37.15712221353905 0 0 0
515 129 2 0.55733 -7.832680839688117 -13.600859057483428 -37.02344558614974 0 0 0
516 129 3 -1.11466 -8.629334672063147 -13.424087756259537 -36.860771009691696 0 0 0
701 176 1 1.708246 -12.90180001390881 -10.089844410629892 -36.28630722488549 0 0 0
702 176 2 0.55733 -12.479183237304959 -9.637639705421993 -35.55609800017684 0 0 0
703 176 2 0.55733 -13.838786001162669 -9.990469390938385 -36.12080698316759 0 0 0
704 176 3 -1.11466 -13.007003105390693 -9.977129714639448 -36.102469517732125 0 0 0
1569 393 1 1.708246 -11.074516883053183 -8.330944702894344 -38.31118945884346 0 0 0
1570 393 2 0.55733 -10.392184241630313 -8.701899911512994 -38.86824830553061 0 0 0
1571 393 2 0.55733 -11.407913245050928 -9.073398703557535 -37.808918806053036 0 0 0
1572 393 3 -1.11466 -11.00397905686745 -8.558483516026435 -38.32280518161801 0 0 0
2736 588 9 1.326101 -8.189922314133176 -8.41841900280296 -37.20854888344058 0 0 0
3206 620 4 2.099183 -12.440434779796684 -12.380480460760003 -41.54386387754467 0 0 0
3207 620 5 1.211919 -13.569715290357687 -11.711170202008054 -41.75010794073363 0 0 0
3208 620 5 1.211919 -12.707446901202374 -13.620532701330267 -41.13081266316445 0 0 0
3209 620 5 1.211919 -11.777438596264185 -12.462856297394495 -42.70543468377382 0 0 0
3210 620 6 3.18259 -11.517002740678977 -11.380465637119118 -40.32924057227542 0 0 0
3211 620 8 1.601296 -10.12016960049669 -12.089286593619779 -40.370143725370056 0 0 0
3212 620 9 1.326101 -11.557459386907777 -10.043062241307368 -40.82987799885871 0 0 0
3213 620 9 1.326101 -12.195319019667199 -11.40883702442313 -39.02814311644736 0 0 0
3214 620 6 3.18259 -8.625895856528384 -12.246427129333474 -40.9190521815907 0 0 0
3215 620 9 1.326101 -8.37808318376618 -11.744934551940558 -42.27899383189717 0 0 0
3216 620 9 1.326101 -8.108088702474756 -13.613357573044736 -40.75311183474388 0 0 0
3217 620 4 2.099183 -7.705966247799797 -11.068340047224487 -39.96748982826011 0 0 0
3219 620 5 1.211919 -8.347488936323023 -9.908443827758717 -39.945607564468666 0 0 0
3532 641 4 2.099183 -10.567031622933015 -11.652035327646162 -34.13722829760355 0 0 0
3533 641 5 1.211919 -9.656950104035763 -10.862552482534703 -34.701732028824075 0 0 0
3535 641 5 1.211919 -10.993358546748812 -12.539877299471016 -35.03441601486927 0 0 0
4093 679 5 1.211919 -8.274029273436849 -8.270944234034944 -43.58580476565825 0 0 0
4094 679 5 1.211919 -9.05006442766016 -8.065918268115519 -41.62760617780876 0 0 0
5677 1005 10 1.31043 -9.903654553942895 -9.866016305369893 -42.30046919071754 0 0 0
5825 129 11 -1.708246 -8.785278862623334 -13.582998729426665 -36.700033343844616 0 0 0
5872 176 11 -1.708246 -12.881592799993602 -10.118713092269827 -36.27861386382126 0 0 0
6089 393 11 -1.708246 -11.14457964199874 -8.274577904272132 -38.336833345577425 0 0 0
6896 588 17 -1.856101 -8.210483536447729 -8.412814677702926 -37.33775993426695 0 0 0
7366 620 12 -1.749183 -12.425916785140666 -12.409130342916596 -41.5619660404032 0 0 0
7367 620 13 -1.371919 -13.565987379602653 -11.726761802105452 -41.75775439336164 0 0 0
7368 620 13 -1.371919 -12.655529567676037 -13.646631916807882 -41.13553536297753 0 0 0
7369 620 13 -1.371919 -11.803840628534585 -12.459086882513265 -42.706905152652 0 0 0
7370 620 14 -2.16259 -11.52193500410018 -11.225635110185705 -40.39832057526467 0 0 0
7371 620 16 -2.261296 -10.14397479046965 -12.08558311545033 -40.40697465177637 0 0 0
7372 620 17 -1.856101 -11.459040246712183 -9.919137134184389 -40.92597754682085 0 0 0
7373 620 17 -1.856101 -12.145993998701728 -11.462732687789568 -39.03981044929054 0 0 0
7374 620 14 -2.16259 -8.647247712723631 -12.216442238931847 -40.95577607178684 0 0 0
7375 620 17 -1.856101 -8.398822476483701 -11.676124219986828 -42.315657658308794 0 0 0
7376 620 17 -1.856101 -8.160828640159675 -13.562963022344851 -40.75329431649969 0 0 0
7377 620 12 -1.749183 -7.718954720967131 -11.016564542188803 -39.98817078993152 0 0 0
7379 620 13 -1.371919 -8.356202519654582 -9.812301189015983 -39.954677424879534 0 0 0
7692 641 12 -1.749183 -10.595595940860568 -11.68685161735653 -34.14290875709635 0 0 0
7693 641 13 -1.371919 -9.61806480696533 -10.83336438350663 -34.73754226586413 0 0 0
7695 641 13 -1.371919 -11.045530490688275 -12.508837182152794 -35.10832381176905 0 0 0
8253 679 13 -1.371919 -8.299335796025694 -8.264838182140728 -43.55353224753005 0 0 0
8254 679 13 -1.371919 -9.08744128700401 -8.142820651242308 -41.58907230780365 0 0 0
9837 1005 18 -0.31043 -9.910447151984576 -9.886862881725008 -42.30173974623781 0 0 0
3534 641 5 1.211919 -11.629710969806156 -10.926338251256958 -33.75320226145372 0 0 0
7694 641 13 -1.371919 -11.673807018984332 -10.965299257820925 -33.8119086527851 0 0 0
8251 679 12 -1.749183 -8.141399601445388 -7.580835448159819 -42.4168350958549 0 0 0
4091 679 4 2.099183 -8.113496550990499 -7.5699863321292815 -42.446938546060515 0 0 0
7378 620 13 -1.371919 -7.500876186215382 -11.50033196935929 -38.76352260126685 0 0 0
473 119 1 1.708246 -3.584009700814054 -11.020169399308623 -42.42274595664242 0 0 0
474 119 2 0.55733 -4.033392477541377 -10.52962614185548 -41.734149262870005 0 0 0
475 119 2 0.55733 -3.3737000154911065 -10.364064946625241 -43.0866589146349 0 0 0
476 119 3 -1.11466 -3.6327853366567693 -10.78499623717585 -42.417285534339605 0 0 0
1125 282 1 1.708246 -1.243485554436537 -13.067091297792722 -42.487498789957286 0 0 0
1126 282 2 0.55733 -1.965542774718262 -12.581043167321056 -42.882775175614086 0 0 0
1127 282 2 0.55733 -0.5275317117815084 -12.99223093576243 -43.11712666350545 0 0 0
1128 282 3 -1.11466 -1.2444095473180128 -12.952091392230354 -42.69660848463254 0 0 0
2734 588 6 3.18259 -6.783445362257446 -8.331368318657498 -36.90762782826908 0 0 0
2735 588 9 1.326101 -5.9375238496776435 -8.450933746516684 -38.04494224016577 0 0 0
2737 588 4 2.099183 -6.264431485194992 -9.634586042751298 -35.676127929625316 0 0 0
2738 588 5 1.211919 -7.2088551415197655 -9.872517430538995 -34.78571291028935 0 0 0
2739 588 5 1.211919 -5.096053322881595 -9.348250535986258 -35.06769528174734 0 0 0
2740 588 5 1.211919 -6.115077433783214 -10.73807535717856 -36.435669252539576 0 0 0
3218 620 5 1.211919 -7.472989201334815 -11.497863208318726 -38.75209780308911 0 0 0
3220 620 5 1.211919 -6.570697387260915 -10.90741819328289 -40.66290230315148 0 0 0
4092 679 5 1.211919 -6.916159453326384 -7.865016477116251 -41.91654644119329 0 0 0
4496 706 4 2.099183 -1.1262049922023998 -12.78036933972898 -34.65942835196851 0 0 0
4499 706 5 1.211919 -0.9255959408001175 -13.666631917728932 -35.64972427334425 0 0 0
4500 706 6 3.18259 -2.138556072292511 -11.248212968713272 -35.134561479161185 0 0 0
4501 706 8 1.601296 -1.3829115458908843 -10.859940819668196 -36.399086027680084 0 0 0
4502 706 9 1.326101 -3.479652404064802 -11.687593364001074 -35.300572673527356 0 0 0
4503 706 9 1.326101 -1.9334710315542671 -10.288676369631412 -34.063821365950574 0 0 0
4504 706 6 3.18259 -1.3994733179965593 -11.008161551238121 -37.91429162687865 0 0 0
4505 706 9 1.326101 -1.9889165017158381 -12.274433472435481 -38.265111934454474 0 0 0
4507 706 4 2.099183 -2.541632347799205 -9.716166714526024 -38.494952362732754 0 0 0
4508 706 5 1.211919 -2.1460444516479953 -8.467404798402985 -38.27574984806181 0 0 0
4509 706 5 1.211919 -3.6813515720485417 -9.932499524207783 -37.8596269778135 0 0 0
4510 706 5 1.211919 -2.7248049099612754 -9.947042247448515 -39.80296563051157 0 0 0
5815 119 11 -1.708246 -3.5664990694303644 -11.021012033039574 -42.395882714623454 0 0 0
5978 282 11 -1.708246 -1.2212907413198646 -13.070494580921093 -42.41229775329765 0 0 0
6894 588 14 -2.16259 -6.89910304675164 -8.339479344160488 -37.03809604535576 0 0 0
6895 588 17 -1.856101 -5.972351911190564 -8.439911004588467 -38.11872715579414 0 0 0
6897 588 12 -1.749183 -6.249936455694707 -9.562083759943832 -35.766130901393886 0 0 0
6898 588 13 -1.371919 -7.1907184567633875 -9.867757335035963 -34.731129409966925 0 0 0
6899 588 13 -1.371919 -5.112230980566048 -9.323838724557683 -35.055485872305354 0 0 0
6900 588 13 -1.371919 -6.146158801642305 -10.731952233087004 -36.412496040587435 0 0 0
7380 620 13 -1.371919 -6.554635264478474 -10.872234679863894 -40.67688842058526 0 0 0
8252 679 13 -1.371919 -6.9615781352944355 -7.86411875791213 -41.87842954099224 0 0 0
8656 706 12 -1.749183 -1.1384175286919276 -12.776896849622435 -34.67194500281306 0 0 0
8659 706 13 -1.371919 -0.9389870236237164 -13.71740548670451 -35.66150258823043 0 0 0
8660 706 14 -2.16259 -2.12022976934938 -11.186367958165905 -35.09046361547966 0 0 0
8661 706 16 -2.261296 -1.4103693105607993 -10.904077387376136 -36.40535317066128 0 0 0
8662 706 17 -1.856101 -3.469942052604417 -11.656095916559433 -35.30341217924601 0 0 0
8663 706 17 -1.856101 -1.9020720544397 -10.212687866910892 -34.031272395851246 0 0 0
8664 706 14 -2.16259 -1.2917614432947513 -10.965486570198971 -37.9817943014519 0 0 0
8665 706 17 -1.856101 -1.9449732061535672 -12.308643631976041 -38.19764010856569 0 0 0
8667 706 12 -1.749183 -2.540132394065024 -9.706957090845773 -38.54251858876951 0 0 0
8668 706 13 -1.371919 -2.19366721993527 -8.424993837362795 -38.27667297249675 0 0 0
8669 706 13 -1.371919 -3.696190567189098 -9.974958333512832 -37.87915176945264 0 0 0
8670 706 13 -1.371919 -2.767879149908324 -9.905881665783753 -39.7801662463562 0 0 0
694 174 2 0.55733 -4.864238602353179 -7.989134333161953 -40.495113844447765 0 0 0
9326 750 17 -1.856101 -0.12355571946497736 -8.522474451330185 -40.28241532058467 0 0 0
1864 466 3 -1.11466 -2.5714387784155424 -7.78234086861853 -33.85371989094082 0 0 0
5558 886 10 1.31043 -7.4035017584497105 -7.740427085379904 -39.337563941318265 0 0 0
9718 886 18 -0.31043 -7.438482317157891 -7.710913591344358 -39.35408932273222 0 0 0
5166 750 9 1.326101 -0.10131014090410957 -8.571849512917636 -40.329251604866805 0 0 0
1861 466 1 1.708246 -2.3975108321144267 -7.651902470094681 -33.95658476092128 0 0 0
6162 466 11 -1.708246 -2.379836838575448 -7.6286857185280335 -33.88045658791306 0 0 0
2271 540 7 1.226101 -11.266798988698309 -7.450779576451054 -35.52016956435262 0 0 0
6431 540 15 -1.856101 -11.258825844092495 -7.459350344661052 -35.49387856457523 0 0 0
129 33 1 1.708246 -13.552423462053909 -3.5410275844828294 -38.86930479763587 0 0 0
130 33 2 0.55733 -14.191701494792703 -3.912482986315249 -39.47863785143795 0 0 0
131 33 2 0.55733 -14.063982047865391 -2.955973606831357 -38.31216059929811 0 0 0
132 33 3 -1.11466 -13.788501499268362 -3.497683507744769 -38.8805211926031 0 0 0
741 186 1 1.708246 -12.794097031261066 -1.0107010856068188 -36.9434584706191 0 0 0
742 186 2 0.55733 -12.100465088942197 -0.3516322252433902 -36.95555715501635 0 0 0
743 186 2 0.55733 -12.76073158108738 -1.3767645643814437 -36.058313026864006 0 0 0
744 186 3 -1.11466 -12.644839435969471 -0.9509988412011993 -36.763771936414976 0 0 0
833 209 1 1.708246 -11.954103084758895 -0.6879485218938926 -39.89386094420323 0 0 0
835 209 2 0.55733 -11.84338165146653 -1.5000842366797489 -40.38813201476316 0 0 0
836 209 3 -1.11466 -11.819389523945741 -0.7232915241813475 -40.090828608850224 0 0 0
857 215 1 1.708246 -7.785277778091444 -2.670948503840643 -34.38371585434398 0 0 0
860 215 3 -1.11466 -7.688602651843386 -2.4945178952451776 -34.25314843375872 0 0 0
1289 323 1 1.708246 -9.631401473736206 -3.64359222182145 -38.95561171147771 0 0 0
1290 323 2 0.55733 -9.355654663822051 -4.066540234697329 -39.76646472805352 0 0 0
1291 323 2 0.55733 -10.183743930877162 -4.294940857709148 -38.519870892075716 0 0 0
1292 323 3 -1.11466 -9.688489483088485 -3.8640887292658994 -39.03120429476855 0 0 0
1413 354 1 1.708246 -12.99787347761795 -0.36545810856132827 -42.8841464425854 0 0 0
1415 354 2 0.55733 -12.631174651199586 -0.19162778808094777 -42.018681365407566 0 0 0
1416 354 3 -1.11466 -13.025294498771533 -0.1690012879993619 -42.75116872083416 0 0 0
1481 371 1 1.708246 -11.293293838420476 -1.6543124283124333 -34.40247810507903 0 0 0
1482 371 2 0.55733 -10.638141477796163 -0.9710402396173782 -34.54837815095629 0 0 0
1484 371 3 -1.11466 -11.149914680132254 -1.55017579191631 -34.240066424260604 0 0 0
2265 540 4 2.099183 -11.609528128304024 -5.139655810318678 -36.61845902632087 0 0 0
2266 540 5 1.211919 -10.378919879177936 -4.756420007799891 -36.23542312932516 0 0 0
2267 540 5 1.211919 -12.383136497084728 -4.062431626496616 -36.477118142823976 0 0 0
2268 540 5 1.211919 -11.614454716690569 -5.542784852477041 -37.88333694801834 0 0 0
2269 540 6 3.18259 -12.240077877174086 -6.451001099560664 -35.53509040371341 0 0 0
2270 540 7 1.226101 -13.469901334986904 -6.772446931935497 -36.108463928926554 0 0 0
2272 540 7 1.226101 -12.231769750643709 -5.713957331180217 -34.30142223861288 0 0 0
3709 653 6 3.18259 -7.645608301272173 -0.5734515496685203 -40.64136350711415 0 0 0
3710 653 9 1.326101 -8.42035830833298 -1.5692274465669145 -41.31072835886864 0 0 0
3712 653 4 2.099183 -7.893679150719378 -0.7452015550320502 -38.87098615621676 0 0 0
3715 653 5 1.211919 -9.226028780048106 -0.6455097877880079 -38.723849821381634 0 0 0
4095 679 6 3.18259 -8.32674438342508 -5.71404767513013 -42.622586252119895 0 0 0
4096 679 8 1.601296 -9.847445107716815 -5.8139906325614925 -42.935962597515655 0 0 0
4097 679 9 1.326101 -8.085778773032745 -5.227073931225342 -41.30595423285338 0 0 0
4099 679 6 3.18259 -11.298114022817652 -5.512959067069545 -42.396982999853485 0 0 0
4100 679 9 1.326101 -11.438660143556337 -6.075488745169165 -41.05307497562994 0 0 0
4101 679 9 1.326101 -12.185066571272685 -5.988910375350154 -43.4635651642145 0 0 0
4102 679 4 2.099183 -11.506077918234412 -3.732570242220315 -42.374957815268324 0 0 0
4103 679 5 1.211919 -11.632883110587136 -3.2450328365538708 -43.597963977804305 0 0 0
4104 679 5 1.211919 -10.538502130995457 -3.123141816042307 -41.719487076422105 0 0 0
4105 679 5 1.211919 -12.627764015234668 -3.5932493965070176 -41.67400071410383 0 0 0
5499 827 10 1.31043 -9.308167855561173 -3.4007459438372094 -35.68382059750461 0 0 0
5506 834 10 1.31043 -12.161044372719791 -7.267857993914153 -39.287539378862824 0 0 0
5729 33 11 -1.708246 -13.554698586774911 -3.572781585848388 -38.90412787269279 0 0 0
5882 186 11 -1.708246 -12.784341757402416 -1.0381392363109467 -36.90158885027452 0 0 0
5905 209 11 -1.708246 -11.938841478267843 -0.6600814681145383 -39.93244149867339 0 0 0
5911 215 11 -1.708246 -7.779867514305523 -2.6774772795543256 -34.41582171215214 0 0 0
6019 323 11 -1.708246 -9.655577190831327 -3.6535945480302896 -38.86436221320417 0 0 0
6050 354 11 -1.708246 -13.012214065868115 -0.41295461351219787 -42.92673299166492 0 0 0
6067 371 11 -1.708246 -11.313393968683986 -1.6039484887461164 -34.4147286706201 0 0 0
6425 540 12 -1.749183 -11.588929869562877 -5.1351257097063625 -36.64211249637528 0 0 0
6426 540 13 -1.371919 -10.337466273876704 -4.70820310092074 -36.247490007143035 0 0 0
6427 540 13 -1.371919 -12.332884355111183 -4.086954520302669 -36.42827017013789 0 0 0
6428 540 13 -1.371919 -11.575930634835682 -5.607185673213686 -37.97670276698021 0 0 0
6429 540 14 -2.16259 -12.171914333982329 -6.396138226630474 -35.5918622258604 0 0 0
6430 540 15 -1.856101 -13.495503785588086 -6.755834868344215 -36.08363555532714 0 0 0
6432 540 15 -1.856101 -12.167040499461276 -5.689687437496995 -34.353048506918505 0 0 0
7869 653 14 -2.16259 -7.629032715927383 -0.570443964452575 -40.66940737608112 0 0 0
7870 653 17 -1.856101 -8.417575912798146 -1.5504305024217238 -41.33436475270127 0 0 0
7872 653 12 -1.749183 -7.932804563085324 -0.7009297923899934 -38.8425170725431 0 0 0
7875 653 13 -1.371919 -9.203293761216576 -0.6375607961271579 -38.63595837519461 0 0 0
8255 679 14 -2.16259 -8.332384504651147 -5.706863744057994 -42.642832046126735 0 0 0
8256 679 16 -2.261296 -9.84217040380138 -5.877270544747336 -42.89641129136253 0 0 0
8257 679 17 -1.856101 -8.121023001488698 -5.2341623733803315 -41.34782158431785 0 0 0
8259 679 14 -2.16259 -11.317016059628394 -5.533273334777561 -42.42005968885282 0 0 0
8260 679 17 -1.856101 -11.527730603910856 -6.105866260453004 -40.947554750544924 0 0 0
8261 679 17 -1.856101 -12.199402669385588 -5.949770212723821 -43.552979020711604 0 0 0
8262 679 12 -1.749183 -11.504157616650271 -3.7759619722278073 -42.338633730745954 0 0 0
8263 679 13 -1.371919 -11.621647008270342 -3.2382135342396188 -43.61613793171216 0 0 0
8264 679 13 -1.371919 -10.58544912073524 -3.135144263557119 -41.72026702899333 0 0 0
8265 679 13 -1.371919 -12.61060494582186 -3.575224190652413 -41.72861899955937 0 0 0
9659 827 18 -0.31043 -9.304880356139726 -3.3955367039431925 -35.64200280546928 0 0 0
9666 834 18 -0.31043 -12.206245845196033 -7.252290708779786 -39.293866936162 0 0 0
834 209 2 0.55733 -11.40911648644774 -0.05013726341877667 -40.357137457198135 0 0 0
8258 679 17 -1.856101 -7.521135664409074 -5.297581019177957 -43.74818552977427 0 0 0
7274 613 13 -1.371919 -9.393328341468468 -6.990936224254973 -33.758493661886696 0 0 0
787 197 2 0.55733 -0.8578772751286821 -0.24321947839401892 -43.34753056702601 0 0 0
1862 466 2 0.55733 -3.342869027572502 -7.522870737391897 -34.0267617759771 0 0 0
9322 750 17 -1.856101 -0.8637091639037305 -4.058450466637651 -41.73272467692368 0 0 0
7874 653 13 -1.371919 -7.458953545975456 -1.911481265461653 -38.34921214159802 0 0 0
3714 653 5 1.211919 -7.447724829292421 -1.8864099918461137 -38.37528402319479 0 0 0
858 215 2 0.55733 -6.856642498089309 -2.489378900118728 -34.239277642880026 0 0 0
1698 425 2 0.55733 -0.8390503361782791 -2.713636246119258 -40.440663227349745 0 0 0
788 197 3 -1.11466 -0.3278569944251988 -0.36040563606192716 -42.71688163921591 0 0 0
9323 750 17 -1.856101 -2.691137660229347 -5.087053513904159 -40.32592601222772 0 0 0
9678 846 18 -0.31043 -3.195564338434528 -5.962576405836358 -38.24862395845148 0 0 0
9639 807 18 -0.31043 -3.546364841319508 -0.027265303210200473 -38.39631218235698 0 0 0
693 174 1 1.708246 -4.629324620003458 -7.060486705098345 -40.50528331306257 0 0 0
695 174 2 0.55733 -3.6824644432928864 -7.051341991764726 -40.369200617557325 0 0 0
696 174 3 -1.11466 -4.483737648532026 -7.2494243430002 -40.47454270529435 0 0 0
785 197 1 1.708246 -0.18859328114983254 -0.5536216857184961 -42.73726215848316 0 0 0
1697 425 1 1.708246 -0.48662129952945893 -2.0759584275801024 -39.82106640295783 0 0 0
9800 968 18 -0.31043 -0.5174652253865165 -2.31300840702165 -42.76027202265589 0 0 0
1699 425 2 0.55733 -0.37383430055417977 -1.2767093471001192 -40.33715058465287 0 0 0
1700 425 3 -1.11466 -0.5355171777657577 -2.0422589880724784 -40.054014916169415 0 0 0
2726 588 4 2.099183 -5.886050944443403 -4.769697825114362 -37.4068622686271 0 0 0
2727 588 5 1.211919 -4.921527086458305 -3.8498358307985776 -37.33202360830858 0 0 0
2728 588 5 1.211919 -7.083972281943123 -4.206502702976132 -37.29172550401807 0 0 0
2729 588 5 1.211919 -5.825967738786064 -5.418042428376387 -38.5799386610146 0 0 0
2730 588 6 3.18259 -5.5825749965887255 -5.8472680601485365 -36.01444666759319 0 0 0
2731 588 8 1.601296 -6.602313551168974 -6.963658334965036 -36.29884591128335 0 0 0
2732 588 9 1.326101 -4.231853131318327 -6.221903111022103 -36.25967685120045 0 0 0
2733 588 9 1.326101 -5.942774492555101 -4.984932470538424 -34.85377946825914 0 0 0
3626 648 4 2.099183 -1.1883687845478519 -2.598941410280793 -36.61395512518789 0 0 0
3627 648 5 1.211919 -0.770938175783431 -3.8009082029546124 -36.97628962773313 0 0 0
3628 648 5 1.211919 -0.1742633222767269 -1.740592837961616 -36.68608629564793 0 0 0
3629 648 5 1.211919 -2.169680839140719 -2.154812830703181 -37.40031125824917 0 0 0
3630 648 6 3.18259 -1.816419338674538 -2.7363839777677397 -34.94817733454271 0 0 0
3631 648 8 1.601296 -2.3454878661768563 -1.2652875330769544 -34.9710320576578 0 0 0
3632 648 9 1.326101 -2.8933842390834084 -3.6161398952750674 -35.06276238464102 0 0 0
3633 648 9 1.326101 -0.612672693389406 -3.104269763049995 -34.191600411954 0 0 0
3634 648 6 3.18259 -3.6003489336765013 -0.3421719747260557 -35.11879677838937 0 0 0
3635 648 9 1.326101 -4.44276404879543 -0.7580989580666794 -36.218823230983595 0 0 0
3701 653 4 2.099183 -5.335755443549358 -2.080746495606148 -43.105538957223665 0 0 0
3702 653 5 1.211919 -4.677326594360548 -3.1640401871078976 -43.53899297773933 0 0 0
3703 653 5 1.211919 -4.693805200835475 -1.0185480525071247 -43.61652227046872 0 0 0
3704 653 5 1.211919 -6.545221757004013 -2.0566196359215176 -43.7267266545506 0 0 0
3705 653 6 3.18259 -5.309912234014622 -2.106435412333918 -41.15671175604005 0 0 0
3706 653 8 1.601296 -6.198535029391866 -0.8717121673930875 -40.90665127970073 0 0 0
3707 653 9 1.326101 -5.84182908328458 -3.342059398055368 -40.6672389036384 0 0 0
3708 653 9 1.326101 -3.9324493787184536 -1.8260895650966216 -40.77331693093066 0 0 0
4098 679 9 1.326101 -7.465608700169362 -5.250343403952086 -43.73682287586404 0 0 0
5156 750 4 2.099183 -2.2919823380234035 -6.020597243739053 -42.891547132373205 0 0 0
5157 750 5 1.211919 -2.7199516934063834 -4.9401807070639805 -43.529005310258476 0 0 0
5158 750 5 1.211919 -3.3102098511895433 -6.8893463406111195 -42.79361892866814 0 0 0
5159 750 5 1.211919 -1.3735334043528102 -6.611993754323527 -43.68612922220299 0 0 0
5160 750 6 3.18259 -1.653364121138798 -5.289013095250051 -41.30425713214679 0 0 0
5161 750 8 1.601296 -0.8854387870070124 -6.386703405648551 -40.64727231262854 0 0 0
5162 750 9 1.326101 -0.8937767225667003 -4.172856687804477 -41.694689258544905 0 0 0
5163 750 9 1.326101 -2.711863029788476 -5.01286595451886 -40.35832816323465 0 0 0
5479 807 10 1.31043 -3.556475154637832 -0.003748234862001827 -38.416437838230145 0 0 0
5518 846 10 1.31043 -3.1873138649466664 -5.934251461715239 -38.26910382012437 0 0 0
5640 968 10 1.31043 -0.4820921108430351 -2.33631448887765 -42.74321512836921 0 0 0
5870 174 11 -1.708246 -4.659239436614479 -7.083485886123275 -40.454861423616165 0 0 0
5893 197 11 -1.708246 -0.22304633664189707 -0.6400105882585407 -42.759466790250954 0 0 0
6121 425 11 -1.708246 -0.469120926382154 -2.038068588229506 -39.82179439325803 0 0 0
6886 588 12 -1.749183 -5.878948666876054 -4.784023167688865 -37.488895711997515 0 0 0
6887 588 13 -1.371919 -4.958061795818221 -3.8648783203185317 -37.35661586155181 0 0 0
6888 588 13 -1.371919 -7.080001683762656 -4.137549397923824 -37.27029320366636 0 0 0
6889 588 13 -1.371919 -5.7997546613662125 -5.513501535027267 -38.602204819721734 0 0 0
6890 588 14 -2.16259 -5.532653588736874 -5.84692626934612 -36.09855043872445 0 0 0
6891 588 16 -2.261296 -6.608430218175023 -6.983069940101155 -36.35103542876477 0 0 0
6892 588 17 -1.856101 -4.184673360005731 -6.26332506513483 -36.288825107314395 0 0 0
6893 588 17 -1.856101 -5.95846139873295 -5.022534213993934 -34.88217933019675 0 0 0
7786 648 12 -1.749183 -1.236137936461183 -2.5797606169559106 -36.57932528484654 0 0 0
7787 648 13 -1.371919 -0.7892573536871481 -3.8311960180108406 -37.01283598500392 0 0 0
7788 648 13 -1.371919 -0.15749196002208704 -1.763332696823866 -36.70857304267018 0 0 0
7789 648 13 -1.371919 -2.188172068221394 -2.090080216374851 -37.38111073097182 0 0 0
7790 648 14 -2.16259 -1.8016719378267942 -2.6405191575834794 -35.016105973836574 0 0 0
7791 648 16 -2.261296 -2.3179785179103867 -1.1758347116043275 -35.03347996594384 0 0 0
7792 648 17 -1.856101 -2.877745585420129 -3.5587640763879254 -35.0929875514492 0 0 0
7793 648 17 -1.856101 -0.6273542536188336 -3.045782984903903 -34.29588465819566 0 0 0
7794 648 14 -2.16259 -3.578574571907592 -0.2923372023894843 -35.17468825254276 0 0 0
7795 648 17 -1.856101 -4.384689419632249 -0.7790152285778027 -36.24885857733256 0 0 0
7861 653 12 -1.749183 -5.32392827846241 -2.0948591047680467 -43.16173082396803 0 0 0
7862 653 13 -1.371919 -4.660432130988116 -3.139050458819658 -43.550990730621194 0 0 0
7863 653 13 -1.371919 -4.704892421576885 -1.0116986766321159 -43.664679676870506 0 0 0
7864 653 13 -1.371919 -6.509480177968042 -2.0378432656008743 -43.71272845712029 0 0 0
7865 653 14 -2.16259 -5.261266369879562 -2.0835727834002054 -41.13024920774548 0 0 0
7866 653 16 -2.261296 -6.183339906721136 -0.8628983173858786 -40.96020320760263 0 0 0
7867 653 17 -1.856101 -5.798287149947862 -3.3265966258954145 -40.6443731229726 0 0 0
7868 653 17 -1.856101 -3.8658539835589774 -1.7392086803460225 -40.697089945834726 0 0 0
9316 750 12 -1.749183 -2.293841207703347 -6.031635550980823 -42.89788802902405 0 0 0
9317 750 13 -1.371919 -2.693043159039716 -4.947451239506063 -43.54374095626609 0 0 0
9318 750 13 -1.371919 -3.2675381200883127 -6.869596267897249 -42.75801673138639 0 0 0
9319 750 13 -1.371919 -1.3321130095601943 -6.633348571918414 -43.733384699075756 0 0 0
9320 750 14 -2.16259 -1.766108431628574 -5.155380829880047 -41.30635063123694 0 0 0
9321 750 16 -2.261296 -1.0088127018617392 -6.245856861301613 -40.62147792270323 0 0 0
823 206 2 0.55733 -3.264480228126902 -0.1395957835912215 -40.527604998111464 0 0 0
859 215 2 0.55733 -8.242962146004983 -1.9918532398244375 -33.88930208394377 0 0 0
941 236 1 1.708246 -14.001751159907219 -13.457609803839329 -33.458597954102736 0 0 0
942 236 2 0.55733 -13.162071565314355 -13.913216234387926 -33.487231979142784 0 0 0
944 236 3 -1.11466 -13.783759216954438 -13.360324677432674 -33.47351661746989 0 0 0
1539 385 2 0.55733 -7.697126446125947 -8.164431143349429 -32.11216838593334 0 0 0
3101 613 4 2.099183 -12.778284265550171 -7.973447654373674 -29.780276614895914 0 0 0
3102 613 5 1.211919 -13.561956229468262 -9.064440407020053 -29.796904068088534 0 0 0
3104 613 5 1.211919 -11.732794906123 -8.151103730534867 -28.94415837429089 0 0 0
3107 613 9 1.326101 -11.581638913829991 -8.593069101779239 -32.139320210594335 0 0 0
3521 641 4 2.099183 -9.927391410314026 -12.471644933945637 -29.02002864144568 0 0 0
3522 641 5 1.211919 -10.59474951951287 -12.01301085517639 -27.95383661573954 0 0 0
3523 641 5 1.211919 -8.643143582443985 -12.508428811292799 -28.69311928512763 0 0 0
3524 641 5 1.211919 -10.309779947803547 -13.703690034698822 -29.33456366982183 0 0 0
3525 641 6 3.18259 -10.197770141319088 -11.258114150969845 -30.39070720776225 0 0 0
3526 641 8 1.601296 -9.516533717652807 -12.00408908777601 -31.55247598575164 0 0 0
3527 641 9 1.326101 -11.594068826079027 -11.234726093188524 -30.520101660762936 0 0 0
3528 641 9 1.326101 -9.541187674780485 -10.065362683049097 -29.837701714568365 0 0 0
3529 641 6 3.18259 -9.887301589128967 -12.803662643408186 -32.849382260344804 0 0 0
3530 641 9 1.326101 -10.905633474866693 -13.759260920707737 -32.44415409557684 0 0 0
3531 641 9 1.326101 -8.635785574818277 -13.397005624836826 -33.33546551210106 0 0 0
4177 684 4 2.099183 -10.743746146732038 -12.2206764000175 -24.033908404792083 0 0 0
4178 684 5 1.211919 -9.87063806811509 -11.61290165374884 -24.80011923851973 0 0 0
4179 684 5 1.211919 -12.01177269456398 -12.027301231331373 -24.37966393625157 0 0 0
4180 684 5 1.211919 -10.497132159668967 -13.518701328692039 -24.10673991421379 0 0 0
5359 763 6 3.18259 -8.601148128452275 -7.78297084206692 -26.097651608779337 0 0 0
5361 763 9 1.326101 -8.498683184776555 -8.78515142223016 -27.2056049904351 0 0 0
5362 763 4 2.099183 -10.323861621832453 -7.93545033492017 -25.522633245370052 0 0 0
5363 763 5 1.211919 -11.151731950045649 -8.080919927302887 -26.529636269190128 0 0 0
5365 763 5 1.211919 -10.238043322464025 -9.119481710790563 -24.901891347893766 0 0 0
5657 985 10 1.31043 -7.903603070443435 -12.933780380860949 -25.564648818759945 0 0 0
5932 236 11 -1.708246 -14.061048515625574 -13.443298755960452 -33.48987246056162 0 0 0
6081 385 11 -1.708246 -7.551253327143608 -9.187128986563913 -32.11057810797538 0 0 0
7261 613 12 -1.749183 -12.822700516487151 -7.970466624898486 -29.678258193961998 0 0 0
7262 613 13 -1.371919 -13.588570884755192 -9.042387255525618 -29.727805470071807 0 0 0
7264 613 13 -1.371919 -11.751416021844861 -8.177818714189057 -28.93109568209564 0 0 0
7267 613 17 -1.856101 -11.64847165247068 -8.572843457959515 -32.12470979864901 0 0 0
7681 641 12 -1.749183 -9.922818586940982 -12.53192814696205 -28.930562007754176 0 0 0
7682 641 13 -1.371919 -10.595843559884452 -12.031797934970774 -27.897578462218675 0 0 0
7683 641 13 -1.371919 -8.661753375043718 -12.48413865096597 -28.66720934561694 0 0 0
7684 641 13 -1.371919 -10.27470275917054 -13.721368506849823 -29.28675700675136 0 0 0
7685 641 14 -2.16259 -10.206322539870579 -11.395958206220918 -30.372431158341907 0 0 0
7686 641 16 -2.261296 -9.53753281867988 -12.070188342749756 -31.5304743789823 0 0 0
7687 641 17 -1.856101 -11.537074197430826 -11.283282703994566 -30.526536032458964 0 0 0
7688 641 17 -1.856101 -9.485645384411127 -10.100360499191607 -29.85545389780298 0 0 0
7689 641 14 -2.16259 -9.842514081963426 -12.915869224800208 -32.83297863331589 0 0 0
7690 641 17 -1.856101 -10.894927563501069 -13.820658124557216 -32.45034351031114 0 0 0
7691 641 17 -1.856101 -8.633728132519611 -13.40790493999694 -33.27196341406842 0 0 0
8337 684 12 -1.749183 -10.731584808812743 -12.216777941333369 -24.003341851340966 0 0 0
8338 684 13 -1.371919 -9.881829459783695 -11.63449690872335 -24.82470701597009 0 0 0
8339 684 13 -1.371919 -11.999687879117074 -12.011562463773947 -24.360007736652534 0 0 0
8340 684 13 -1.371919 -10.512819061367848 -13.519781687444858 -24.171047200415387 0 0 0