LAMMPS data file via write_data, version 23 Jun 2022, timestep = 61000000

6700 atoms
20 atom types
6000 bonds
16 bond types
9800 angles
26 angle types
9600 dihedrals
22 dihedral types

0 42.00422 xlo xhi
0 42.00422 ylo yhi
0 42.00422 zlo zhi

Masses

1 12.011
2 14.007
3 12.011
4 12.011
5 15.999
6 1.008
7 1.008
8 1.008
9 1.008
10 1.008
11 1.008
12 1.008
13 6.941
14 12.011
15 18.998
16 32.066
17 14.007
18 15.999
19 1.008
20 15.999

Bond Coeffs # harmonic

1 336.998 1.449
2 489.998 1.335
3 317.005 1.522
4 570.005 1.229
5 339.998 1.09
6 339.998 1.09
7 339.998 1.09
8 433.999 1.01
9 339.998 1.09
10 339.998 1.09
11 339.998 1.09
12 441.922 1.323
13 233.031 1.818
14 374.88 1.57
15 637.07 1.437
16 412.285 1

Angle Coeffs # harmonic

1 35.0024 109.5
2 35.0024 109.5
3 35.0024 109.5
4 32.9947 107.8
5 32.9947 107.8
6 32.9947 107.8
7 50 121.9
8 38.0019 118.4
9 35.0024 119.8
10 70.0048 116.6
11 79.9952 122.9
12 79.9952 120.4
13 35.0024 109.5
14 35.0024 109.5
15 35.0024 109.5
16 32.9947 107.8
17 32.9947 107.8
18 32.9947 107.8
19 93.3317 107.1
20 82.935 111.7
21 91.3002 103.5
22 103.967 102.6
23 94.2878 113.6
24 115.798 118.5
25 80.1864 125.6
26 45.7696 109.47

Dihedral Coeffs # opls

1 0 0 0 0
2 0 0 0 0
3 0 0 0 0
4 0 0 0 0
5 0 0 0 0
6 0 0 0 0
7 1.1501 6.08891 0 0
8 0 4.9001 0 0
9 0 6.08891 0 0
10 0 4.9001 0 0
11 0 0 0 0
12 0 0 0 0
13 0 0 0 0
14 0 0 0 0
15 0 0 0 0
16 0 0 0 0
17 0 0 0.315966 0
18 0 0 0.346797 0
19 7.83293 -2.49044 -0.763623 0
20 0 0 -0.003585 0
21 0 2.5 0 0
22 0 10.5 0 0

Atoms # full

2511 210 3 0.617 3.308995567309321 3.3431691437166635 5.917409419242665 0 0 0
2510 210 2 -1.144 2.064596323859314 2.947232663345273 5.719766427508666 0 0 0
2513 210 5 -0.4431 3.7599436964657293 3.8719337604280155 6.885238839355459 0 0 0
2517 210 9 0.5181 1.8806594532528185 2.3802974565475945 4.90438205214633 0 0 0
2512 210 4 -0.2777 4.100946196866031 3.283838232827154 4.680885289076467 0 0 0
2518 210 10 0.1153 4.757265942249356 4.145836892203608 4.561291420904882 0 0 0
2520 210 12 0.1154 4.894229903201948 2.5408855082906983 4.763481931543751 0 0 0
2519 210 11 0.1153 3.551060894397751 3.22186002226803 3.74179805289999 0 0 0
4569 381 9 0.5181 5.807861594139262 3.4117528194481284 2.342055343183496 0 0 0
2161 181 1 0.1071 4.260026183863243 1.923730438299669 9.230219828363595 0 0 0
197 17 5 -0.4431 1.567550907851235 1.1926573366486435 3.7472734162924994 0 0 0
2929 245 1 0.1071 1.6331256134815542 5.611284453889795 3.0296600796757303 0 0 0
949 80 1 0.1071 5.486099242365984 6.4180019809352515 6.893524012172597 0 0 0
2509 210 1 0.1071 1.0994080372210526 3.0145276992319197 6.8336404388157055 0 0 0
193 17 1 0.1071 2.5622367732727267 1.0276760681545694 1.043596179657706 0 0 0
955 80 7 0.0922 5.087000062648271 6.106527909278615 7.858823821278233 0 0 0
2934 245 6 0.0922 2.2955186325407806 5.9656456390483745 3.8194471553778246 0 0 0
4561 381 1 0.1071 6.841536699398162 1.5173980543194319 2.7875760516944026 0 0 0
4562 381 2 -1.144 6.5707570416674095 3.0024060237839887 2.862176215278154 0 0 0
2516 210 8 0.0922 1.4950548016475111 3.243798903770952 7.82308388246009 0 0 0
2167 181 7 0.0922 4.383095453908635 1.7951356552698714 8.154851364201413 0 0 0
200 17 8 0.0922 1.57644749252114 1.483192652432261 0.9496594363766635 0 0 0
956 80 8 0.0922 5.516015485823806 5.4980722691490715 6.309628186915294 0 0 0
2162 181 2 -1.144 5.334167690124584 1.233630317795114 10.017744478086993 0 0 0
2930 245 2 -1.144 1.4395828513962983 6.707061636336256 2.0985376983668593 0 0 0
199 17 7 0.0922 3.385589466227195 1.6824611283115076 1.3289851519333151 0 0 0
4564 381 4 -0.2777 7.254521370441203 5.302846546650111 3.520804566757609 0 0 0
2168 181 8 0.0922 4.247165250926278 3.0088751075372038 9.332178843336543 0 0 0
2286 191 6 0.0922 2.4597370172309683 6.535387036091646 7.2904443193645845 0 0 0
4570 381 10 0.1153 7.837476909942166 5.671499342188261 2.676791573152978 0 0 0
4568 381 8 0.0922 6.751362809835609 1.1157790838227473 3.796868276906723 0 0 0
4008 334 12 0.1154 6.925181068955518 4.205619398813818 8.214170155652413 0 0 0
2169 181 9 0.5181 5.441227922009917 0.24236753238182246 9.856387139240088 0 0 0
2935 245 7 0.0922 1.998934243245624 4.711724077291548 2.534609404124613 0 0 0
2939 245 11 0.1153 1.1566672725161506 9.904916763140282 1.7606480155517832 0 0 0
4566 381 6 0.0922 7.736176014733971 1.1991881081436289 2.252353761544086 0 0 0
2288 191 8 0.0922 0.7755247792259705 6.921444749678351 7.1742683821359545 0 0 0
2166 181 6 0.0922 3.344154613329288 1.4682099052045265 9.606757085904986 0 0 0
2937 245 9 0.5181 0.9306543912468878 6.487265769099024 1.25427377565557 0 0 0
4571 381 11 0.1153 7.416506074288641 5.652511464322091 4.540410073790676 0 0 0
4296 358 12 0.1154 10.80759825134751 7.4306276125689665 9.786374092409174 0 0 0
2287 191 7 0.0922 1.6474015054954405 6.30856564057601 5.787639576917335 0 0 0
3514 293 10 0.1153 3.0264450286998117 5.210173452163316 9.870487459429238 0 0 0
5720 555 18 -0.53 13.957703044752416 10.241262542887206 8.092874140500545 0 0 0
198 17 6 0.0922 2.882494837760256 0.6323080105532721 0.079636206352913 0 0 0
4734 395 6 0.0922 4.3259665511342105 12.571646845904361 0.7737096206034489 0 0 0
2936 245 8 0.0922 0.6701504462019138 5.327963327865006 3.4545223028892638 0 0 0
2515 210 7 0.0922 0.3657439990669028 3.7760255686244686 6.56914460218085 0 0 0
2514 210 6 0.0922 0.4881452656131272 2.1148606829754804 6.904753566927165 0 0 0
4006 334 10 0.1153 7.6657766565151 3.4668512366999096 9.607616062459744 0 0 0
4572 381 12 0.1154 6.203429604084187 5.572268260322886 3.4172767130933783 0 0 0
4563 381 3 0.617 7.320421007677414 3.744468026459068 3.6973892998997564 0 0 0
4567 381 7 0.0922 6.055356251522581 1.1474273287413845 2.1294408702122976 0 0 0
1434 120 6 0.0922 10.848625531228478 1.1685809843536445 9.635495156242891 0 0 0
1944 162 12 0.1154 10.710358544909024 10.548814488234774 9.767516388484324 0 0 0
840 70 12 0.1154 9.005138114408425 1.8691541406358083 0.28784561132454817 0 0 0
4007 334 11 0.1153 7.1807533051362595 2.418717985943335 8.33335481175071 0 0 0
5591 547 14 0.35 13.572955140566025 0.9161824911890075 4.1270820523767515 0 0 0
1368 114 12 0.1154 10.617531796387695 13.693831655856368 2.2800191845450817 0 0 1
4000 334 4 -0.2777 7.600451626369212 3.406978292689139 8.521223932863116 0 0 0
832 70 4 -0.2777 9.964877763380771 1.5562691690085155 0.6990666698555432 0 0 0
4565 381 5 -0.4431 8.280396703476043 3.1839923424098866 4.2887035588645555 0 0 0
5595 547 16 1.02 13.472236577707184 2.38512823477357 5.313099101745467 0 0 0
836 70 8 0.0922 9.968621846344554 4.934188304118969 3.492142287775399 0 0 0
830 70 2 -1.144 10.422353762410193 3.6388717643362782 1.8628973828297544 0 0 0
5601 547 18 -0.53 12.63914257872784 2.4047215270112714 8.386104368687649 0 0 0
833 70 5 -0.4431 10.535165693866587 1.6991331126687095 3.0290595633981723 0 0 0
831 70 3 0.617 10.264281618757634 2.3237096263866963 2.0124257382185693 0 0 0
4001 334 5 -0.4431 9.246717430727587 2.888957758229823 6.9014255790092545 0 0 0
4829 429 13 1 9.92346606811436 2.1851699881246325 5.038246784945742 0 1 0
3998 334 2 -1.144 9.849685941319727 4.269357783728022 8.518064862833784 0 0 0
3999 334 3 0.617 8.960052349963009 3.487905413144264 7.925818585191166 0 0 0
5598 547 18 -0.53 12.09865955746326 2.6729628608128295 5.342491082573611 0 0 0
3997 334 1 0.1071 10.857604370013473 5.083206338980111 7.747985429885104 0 0 0
4005 334 9 0.5181 9.324700039382394 4.945504141695367 9.05408340920011 0 0 0
829 70 1 0.1071 10.775118186583876 4.678079571879138 2.80506736952938 0 0 0
4004 334 8 0.0922 10.477952626117347 5.430865810397019 6.787205866190514 0 0 0
4002 334 6 0.0922 11.695288784267449 4.462932109317487 7.42916776854205 0 0 0
4003 334 7 0.0922 11.030619083443888 6.0857826565900615 8.139146042029907 0 0 0
835 70 7 0.0922 11.679064140052311 4.4115304386878025 3.3527289894155574 0 0 0
834 70 6 0.0922 10.907431759881336 5.558499965028154 2.1762168102463337 0 0 0
4881 481 13 1 11.088791846547762 3.3582881883964637 9.644657582360741 0 0 0
4289 358 5 -0.4431 8.420022628945599 6.2659815595777175 9.577965180244163 0 0 0
837 70 9 0.5181 10.176553860573522 4.002172429286705 0.9531199232648043 0 0 0
5599 547 16 1.02 13.550289123009005 1.4306151600184527 8.016459601021678 0 0 0
5594 547 15 -0.16 13.120519246635368 1.1461756361514628 2.900794232778225 0 0 0
5600 547 18 -0.53 13.165672775539583 0.06887982502046694 8.241782722898856 0 0 0
678 57 6 0.0922 13.18731578513031 7.024933274010833 9.05596095636166 0 0 0
6162 585 15 -0.16 0.26293158347058304 11.829008633823774 5.2340005584841816 1 0 0
838 70 10 0.1153 10.042091962041715 0.4732795108665427 0.7953546044190496 0 0 0
5583 546 18 -0.53 9.664587303480392 0.17221100488437324 5.644065808478233 0 0 0
957 80 9 0.5181 7.461013355957126 6.512410278435807 7.698033200767573 0 0 0
4647 388 3 0.617 10.039567084727867 9.558555344615534 0.08140769655195701 0 0 1
4648 388 4 -0.2777 9.862548158853418 8.145915201626508 0.5946019671811866 0 0 1
4715 393 11 0.1153 11.836737147690823 13.913170484772234 4.472636315283902 0 0 0
4284 357 12 0.1154 13.218720001161664 3.2309857464684013 1.0338198074927956 0 0 1
2336 195 8 0.0922 7.7369859459011625 5.2953177316334115 0.299619213114965 0 0 1
195 17 3 0.617 2.164321648604496 0.20815674624313593 3.308440691513271 0 0 0
4106 343 2 -1.144 3.936118505153986 7.232870196699566 0.6637681197618698 0 0 0
4113 343 9 0.5181 3.142149454293235 7.175940430758187 1.2854369313181908 0 0 0
954 80 6 0.0922 4.873095497000156 7.186993472312711 6.423440580055422 0 0 0
5628 549 18 -0.53 0.6866112095577181 0.3272163481506289 9.212824186115988 1 1 0
950 80 2 -1.144 6.851830533352024 6.919403353519899 7.002797369479126 0 0 0
1435 120 7 0.0922 9.175217807145211 1.3947248789369238 9.959797311866714 0 0 0
2932 245 4 -0.2777 1.0249265583647569 8.885231744411026 1.3987269686802881 0 0 0
4283 357 11 0.1153 12.585525405269944 4.554316285078607 0.29611066694584137 0 0 1
4109 343 5 -0.4431 6.154045661159387 7.6633579476382145 0.6840409141481244 0 0 0
2281 191 1 0.1071 1.719367227717665 6.992080880398826 6.63364657037165 0 0 0
4276 357 4 -0.2777 13.410527549865304 3.8549010304083082 0.16087108981384624 0 0 1
6484 628 19 0.4238 4.961372055034988 8.462245645497118 8.995479957232645 0 0 0
4115 343 11 0.1153 4.767440412102175 9.60492024084105 2.1745580414594157 0 0 0
4107 343 3 0.617 5.036944264348408 7.797540833977668 1.2081273425934411 0 0 0
6476 626 19 0.4238 0.5644755028147094 8.818558070721036 7.019503016261317 1 0 0
4116 343 12 0.1154 5.906870305255468 8.355020048212644 2.892917699741207 0 0 0
4108 343 4 -0.2777 4.921213464809577 8.570001195659932 2.480166324282122 0 0 0
4114 343 10 0.1153 4.143992901516213 8.29363110299162 3.192660353753126 0 0 0
2933 245 5 -0.4431 1.6489042435493604 8.451673003941144 3.6213901767809626 0 0 0
2292 191 12 0.1154 4.421920086431771 10.482578780975178 6.037479655203786 0 0 0
2290 191 10 0.1153 3.01950261485466 11.285327286563637 6.7683261935337695 0 0 0
2289 191 9 0.5181 1.729281708021958 8.631916173847126 5.386955268429194 0 0 0
2282 191 2 -1.144 1.963296895660254 8.374058643666105 6.335030360271193 0 0 0
2283 191 3 0.617 2.959478196484904 9.136440984794532 6.898139423798912 0 0 0
2285 191 5 -0.4431 3.5733668089201096 8.66069075864465 7.85459764200368 0 0 0
2284 191 4 -0.2777 3.3438600811307824 10.42242117477828 6.186703227518628 0 0 0
2291 191 11 0.1153 2.9896786864010836 10.27283371255732 5.16676251078188 0 0 0
6482 628 19 0.4238 6.315624015373302 7.930583843861451 8.253884468273332 0 0 0
6483 628 20 -0.8476 5.958706765515269 8.416056750123053 9.05196105134772 0 0 0
545 46 5 -0.4431 6.056024074955701 12.378971571024984 4.165809049788913 0 0 0
2931 245 3 0.617 1.4109412460807242 7.9878960158216445 2.4827689536018696 0 0 0
1940 162 8 0.0922 6.673405706658441 11.202567493079856 7.859462602162462 0 0 0
6163 585 15 -0.16 1.4102853063928114 12.436708511285532 3.6274136953204548 1 0 0
1933 162 1 0.1071 6.782501407352332 12.22235487006783 8.228558457430207 0 0 0
1938 162 6 0.0922 6.451173243394217 12.922756019360735 7.46190346864866 0 0 0
1939 162 7 0.0922 6.086452881764248 12.411904245375338 9.0456799156564 0 0 0
953 80 5 -0.4431 6.852422639111489 8.378832377393152 5.357201199376886 0 0 0
1364 114 8 0.0922 6.54333539300725 12.021030961664808 1.721907798389437 0 0 1
2334 195 6 0.0922 7.197261669913584 3.615440923962763 0.6736201433788701 0 0 1
1362 114 6 0.0922 7.558340922463312 10.541142736537294 2.0599182685441955 0 0 1
210 18 6 0.0922 1.950806729124773 12.80098190470925 9.705498653876742 0 0 0
952 80 4 -0.2777 8.922017415621815 8.181086985078334 6.560886496117055 0 0 0
543 46 3 0.617 6.901579434287068 13.219555195765379 4.443986731404401 0 0 0
1363 114 7 0.0922 7.478147783781778 11.209504519817036 0.5255330111640701 0 0 1
2938 245 10 0.1153 1.6266864605395406 8.658310834162279 0.5186747655606764 0 0 0
1936 162 4 -0.2777 10.237286612628074 11.523965634210139 9.651830693410139 0 0 0
4736 395 8 0.0922 2.683545522237527 12.91774119429485 0.36312521103877227 0 0 0
6161 585 14 0.35 0.30343604731005763 12.672827243370664 4.255721886803295 1 0 0
5716 555 17 -0.66 13.845636943558702 9.059752800907441 5.927352874794155 0 0 0
212 18 8 0.0922 1.234518725167716 13.839381723378152 8.508267203472363 0 0 0
4649 388 5 -0.4431 10.858950540376082 10.34050805595964 0.6140148636579962 0 0 1
205 18 1 0.1071 2.1251071797899126 13.705138163717775 9.122214164356114 0 0 0
5719 555 16 1.02 13.04593861152456 9.793528065621853 7.028612313930529 0 0 0
1943 162 11 0.1153 10.685528095312561 12.040542365215872 8.803109275096995 0 0 0
211 18 7 0.0922 2.8763652449426207 13.642671051149762 8.334934562590423 0 0 0
2652 221 12 0.1154 2.405927516424867 10.606404384594496 10.465764529991805 0 0 0
958 80 10 0.1153 9.23159829625494 9.093458378652322 6.051143319736382 0 0 0
552 46 12 0.1154 9.029865687951775 13.147591342753302 4.250768408918397 0 0 0
551 46 11 0.1153 8.533645454850237 12.996316483334532 5.915238773424593 0 0 0
4654 388 10 0.1153 10.255749214388386 8.051833628113062 1.6068477725834243 0 0 1
5717 555 18 -0.53 12.438343534998335 7.001763548049368 5.784048371630484 0 0 0
5724 555 15 -0.16 12.027500443314104 12.133830059914754 6.939212446736372 0 0 0
1359 114 3 0.617 8.755205871820486 13.584877108516139 1.4976881303518337 0 0 1
5723 555 15 -0.16 13.438842743325807 11.933080167655739 5.448194469376246 0 0 0
1365 114 9 0.5181 9.533892537083908 11.717316291498037 1.314308430053278 0 0 1
1934 162 2 -1.144 8.102875247190518 12.386139268104438 8.694675322687159 0 0 0
1935 162 3 0.617 8.734355553436062 11.403553932070206 9.34855608619006 0 0 0
1358 114 2 -1.144 8.7234118086829 12.255086967061645 1.5863813100683604 0 0 1
5725 555 15 -0.16 11.562058566942063 11.026516048726384 5.240394768918906 0 0 0
1357 114 1 0.1071 7.496451138537274 11.513880179402982 1.572013033955318 0 0 1
951 80 3 0.617 7.452534514176448 7.875193363620192 6.264070580164262 0 0 0
5714 555 15 -0.16 11.681199006803727 8.571455931292324 3.5304635365554127 0 0 0
5715 555 16 1.02 13.537837075718459 7.736189611635639 5.2118596481338955 0 0 0
5722 555 14 0.35 12.523442441549884 11.278001448163874 6.129163894955645 0 0 0
4656 388 12 0.1154 8.790764040777887 7.956289823442043 0.6530914276962121 0 0 1
5711 555 14 0.35 12.920798714965365 8.18110451709317 3.5340316966284187 0 0 0
1941 162 9 0.5181 8.581941903548543 13.203798058827203 8.34534849198321 0 0 0
959 80 11 0.1153 9.588852529986063 7.477696817179065 6.062215075001459 0 0 0
5712 555 15 -0.16 12.93595485311058 7.180472213795375 2.67274865723144 0 0 0
5721 555 18 -0.53 11.814551373387513 9.2202719881479 7.517520053298478 0 0 0
5713 555 15 -0.16 13.511546675394614 9.218668880922346 3.0147423745230073 0 0 0
1937 162 5 -0.4431 8.100225881377208 10.449813284664039 9.796640440883237 0 0 0
544 46 4 -0.2777 8.264448849912446 12.717227419238405 4.896542317535415 0 0 0
550 46 10 0.1153 8.316765708537543 11.629291472787775 4.938474662009178 0 0 0
960 80 12 0.1154 8.951372460592916 8.350227966363866 7.637283065453379 0 0 0
1429 120 1 0.1071 10.14337980986888 1.3133123845463481 10.453896821661322 0 0 0
493 42 1 0.1071 1.6125615348793834 2.9620715642951283 19.572761994276238 0 0 0
975 82 3 0.617 4.648620135034574 1.7677670934665188 17.651739957950678 0 0 0
976 82 4 -0.2777 3.6514425166354707 2.06999590213853 16.576711161465916 0 0 0
6406 602 19 0.4238 3.1305596914344087 4.003883644751061 13.70891634348017 0 0 0
2805 234 9 0.5181 4.927525424857968 4.241666543743414 15.236647309682585 0 0 0
6405 602 20 -0.8476 3.3166731685432995 4.322940532609279 14.638198059744484 0 0 0
3507 293 3 0.617 2.256136522418377 4.147499184770501 11.689389946320501 0 0 0
3506 293 2 -1.144 3.026833499768782 3.1898778090855844 12.296704994544225 0 0 0
3505 293 1 0.1071 2.4602223631861286 1.9073880018534102 12.71780069733535 0 0 0
974 82 2 -1.144 5.909470801976561 2.0344187433248373 17.52628421694644 0 0 0
3513 293 9 0.5181 4.031478039641743 3.205359805342516 12.19399364912652 0 0 0
981 82 9 0.5181 6.171652363106353 2.781227401440064 16.898878729765844 0 0 0
221 19 5 -0.4431 1.6386358459389212 5.51072685425446 16.03475517930178 0 0 0
6404 602 19 0.4238 2.5618615273881375 4.900095883425895 14.94988876240464 0 0 0
2798 234 2 -1.144 5.889166689879526 4.063558852124361 15.488884736383053 0 0 0
984 82 12 0.1154 2.7748605636795634 1.4523481421097661 16.77219856268938 0 0 0
499 42 7 0.0922 1.9275172759006602 2.350291572654855 18.72740521082668 0 0 0
498 42 6 0.0922 1.1432104176202027 3.9032770120783993 19.28650714287239 0 0 0
3510 293 6 0.0922 3.257789835428702 1.3047352034418345 13.152306959242532 0 0 0
3511 293 7 0.0922 1.997408663357394 1.4318255064664105 11.853078934812945 0 0 0
982 82 10 0.1153 4.091706385565982 1.7739351351474466 15.624547459243832 0 0 0
983 82 11 0.1153 3.2572484889498114 3.0843024638791783 16.514315271159898 0 0 0
2800 234 4 -0.2777 5.491694331793087 5.815906764004405 17.130091332878788 0 0 0
4285 358 1 0.1071 6.565095338225698 6.668170303135688 11.620288952904279 0 0 0
3509 293 5 -0.4431 0.9997825793808608 4.082140086870038 11.603943119861162 0 0 0
977 82 5 -0.4431 4.228261791134502 1.0125031986078818 18.52794935651705 0 0 0
219 19 3 0.617 0.7843096472824997 6.339056155203134 16.356908648627435 0 0 0
2797 234 1 0.1071 6.644270905138723 3.1035471745402745 14.634882826206903 0 0 0
500 42 8 0.0922 2.57514159740105 3.3012254520879565 19.95553371379115 0 0 0
3512 293 8 0.0922 1.597173633609398 1.9617112451103444 13.381348636713737 0 0 0
2165 181 5 -0.4431 5.657684480665323 2.8578266032630393 11.539994119010991 0 0 0
2806 234 10 0.1153 6.092731729360565 6.299522641541318 17.900136605943345 0 0 0
4291 358 7 0.0922 6.248368112488705 6.898599948648538 12.637484134477278 0 0 0
3508 293 4 -0.2777 3.1408750532422482 5.186617957194921 10.954208315629428 0 0 0
2807 234 11 0.1153 4.660174754781238 5.220435652239725 17.5070387178287 0 0 0
495 42 3 0.617 0.7365675145943009 0.8382899398594336 20.449760090805537 0 0 0
2164 181 4 -0.2777 6.697280291937932 0.7862688284364023 11.869719222944966 0 0 0
497 42 5 -0.4431 1.7975409428782236 0.23539169687245584 20.35732047736832 0 0 0
2799 234 3 0.617 6.4222521139695505 4.943549674581213 16.323130285994573 0 0 0
2808 234 12 0.1154 5.119547678718821 6.675202406525528 16.57222230785885 0 0 0
2374 198 10 0.1153 8.275960322487084 13.206839436849888 16.742821438410182 0 0 0
2802 234 6 0.0922 5.897599741112838 2.4294009465750666 14.215229386389247 0 0 0
2804 234 8 0.0922 7.175014500752297 3.6871014008603873 13.88263573363741 0 0 0
2163 181 3 0.617 5.946268550538323 1.7477174870006273 11.086326233235324 0 0 0
4292 358 8 0.0922 6.843800674943315 5.615198916930605 11.579367535673223 0 0 0
2037 170 9 0.5181 0.9265307919094742 13.265660972560909 15.69185177862184 0 0 0
226 19 10 0.1153 1.8681524530968838 6.99499404243915 18.177170270913294 0 0 0
2803 234 7 0.0922 7.398367647794483 2.5858478739353616 15.227694360892936 0 0 0
2646 221 6 0.0922 2.1459364749814283 8.416618957123886 15.02673057579425 0 0 0
3515 293 11 0.1153 4.1973822088447585 5.234591211093745 11.21800972572211 0 0 0
494 42 2 -1.144 0.7015957883266737 2.1797593931704693 20.396038046759557 0 0 0
227 19 11 0.1153 0.17195033586267514 7.189312347891601 18.25992211703213 0 0 0
3180 265 12 0.1154 13.397666962223491 0.6926495383046307 17.468290504713035 0 1 0
979 82 7 0.0922 7.841284744513422 2.0379992058093683 18.571347308092374 0 0 0
1436 120 8 0.0922 9.940913184132128 0.49593937691949846 11.146001311856557 0 0 0
1715 143 11 0.1153 1.2771805840357153 8.794694844167662 20.602666200684276 0 0 0
2170 181 10 0.1153 7.70292508703879 1.1787573636159496 12.020488158765444 0 0 0
973 82 1 0.1071 7.065412183113065 1.3617114057726023 18.212520711359026 0 0 0
980 82 8 0.0922 7.594210339926403 0.6493391309040764 17.579276489820778 0 0 0
2029 170 1 0.1071 0.4792460678662831 13.954543260456408 17.6351206199077 0 0 0
683 57 11 0.1153 13.767547694257987 3.4679945280995965 12.244477996896014 0 0 0
1942 162 10 0.1153 10.323881168511177 12.090960847440254 10.578716768942542 0 0 0
978 82 6 0.0922 6.721745038747871 0.8874007050293402 19.131771606135402 0 0 0
5038 510 15 -0.16 7.5991705217769985 5.757184934146096 20.22199448841636 0 0 0
2801 234 5 -0.4431 7.655562944219148 5.007108862663971 16.49404276753082 0 0 0
2555 213 11 0.1153 9.702424424595328 4.621213815102636 17.71799862303783 0 0 0
2556 213 12 0.1154 9.98242365650384 3.146093810441876 16.908594212418194 0 0 0
2548 213 4 -0.2777 10.500669867602673 3.9199210455286257 17.47490884028461 0 0 0
2549 213 5 -0.4431 11.208268388585116 2.0179368088902727 18.86956603836703 0 0 0
1437 120 9 0.5181 11.428850489629102 2.226630170310973 11.941666274650645 0 0 0
1439 120 11 0.1153 10.792615800005326 3.389910295532384 13.914347031684091 0 0 0
1432 120 4 -0.2777 10.419617935534358 4.057949517716093 13.138011933431242 0 0 0
1431 120 3 0.617 9.856951020418752 3.2026840279063715 12.012701617953029 0 0 0
1438 120 10 0.1153 11.054610206444732 4.930950079303229 12.987164989331212 0 0 0
1440 120 12 0.1154 9.571155180236333 4.405560157306413 13.727399548858282 0 0 0
2547 213 3 0.617 11.214510586254184 3.2329179706468194 18.661800123640376 0 0 0
2546 213 2 -1.144 11.869781476904045 4.008903438966557 19.467731345578766 0 0 0
2554 213 10 0.1153 11.165702432620252 4.420394642338651 16.77109222919424 0 0 0
1433 120 5 -0.4431 8.659285829159804 3.4120267328201237 11.679308583066637 0 0 0
1430 120 2 -1.144 10.635874732855456 2.4160770733046713 11.345512503226312 0 0 0
2553 213 9 0.5181 11.908239044826953 4.997342521201269 19.263748204358727 0 0 0
5855 564 18 -0.53 12.71421361397052 0.8994141144163994 12.630749804475196 0 0 0
5037 510 15 -0.16 9.652605921344398 6.247544522496529 20.119041904539923 0 0 0
5036 510 14 0.35 8.463077102002343 6.693690760374381 20.548386327760273 0 0 0
2545 213 1 0.1071 12.888767591272504 3.376959314839646 20.39795737864229 0 0 0
3753 313 9 0.5181 10.254556900886733 0.5195773402400511 20.787826378871426 0 0 0
675 57 3 0.617 13.547674795190392 5.067748619663355 11.030899678906936 0 0 0
2552 213 8 0.0922 13.66533297809408 2.8209752239493255 19.87266901897529 0 0 0
4290 358 6 0.0922 5.726925760352155 6.843994802464902 10.946006015590047 0 0 0
2650 221 10 0.1153 3.9701526347940543 11.137837290248447 11.163611812679111 0 0 0
5042 510 18 -0.53 9.065279492424718 9.172595705104328 20.623223841132187 0 0 0
4294 358 10 0.1153 10.672048551281874 6.6632428243623565 11.400571993641538 0 0 0
1713 143 9 0.5181 2.9711507466758675 10.90830294082245 20.92850073378077 0 0 0
5854 564 16 1.02 13.437719779065977 0.07529370643267919 13.540970866938181 0 0 0
2316 193 12 0.1154 11.177781028048361 6.839012844880436 15.248098593733019 0 0 0
1712 143 8 0.0922 2.0717072640083227 13.476249803539163 20.949442019339198 0 0 0
6306 594 18 -0.53 0.11954470136739659 0.9084538330737795 17.090947912736215 0 0 0
3871 323 7 0.0922 0.6510792056537581 8.469974797139962 10.613838582492653 0 0 0
2448 204 12 0.1154 3.6050868350878917 5.877047125726459 20.57858838510873 0 0 0
3752 313 8 0.0922 8.752503156697761 2.7454976375679756 20.746469230795523 0 0 0
2172 181 12 0.1154 6.063387865238695 0.6914315204027436 12.751357620699366 0 0 0
220 19 4 -0.2777 1.0016350291963845 7.214626908315328 17.553464438010455 0 0 0
5045 510 18 -0.53 6.454284880305963 11.081299723320452 20.284109132495455 0 0 0
4884 484 13 1 6.768751639627435 8.986566113943837 10.625475667055932 0 0 0
1735 145 7 0.0922 13.872124756767944 13.944980172883197 20.662131208674815 0 0 0
2647 221 7 0.0922 3.6805746223814295 7.940306636181679 14.466529526978086 0 0 0
4782 399 6 0.0922 7.521278228554018 13.249088635765233 12.148921587484084 0 0 0
1707 143 3 0.617 1.083567421881496 11.005410951966518 20.33122905323142 0 0 0
1716 143 12 0.1154 1.9424175403579593 9.46928932200741 19.121549423366993 0 0 0
2648 221 8 0.0922 2.4219863588050896 7.170660706283555 13.558512946977222 0 0 0
5041 510 17 -0.66 6.615309548683881 8.575457470429102 20.258453484911954 0 0 0
2644 221 4 -0.2777 2.9593048813242304 10.795746675775984 11.385559608033793 0 0 0
2645 221 5 -0.4431 3.2845201780464324 8.493533362772862 11.349662195535378 0 0 0
3189 266 9 0.5181 0.8797060850892715 11.76860400901786 13.571192015046108 0 0 0
3187 266 7 0.0922 3.71723149869591 12.204169032394274 14.186939214591133 0 0 0
3188 266 8 0.0922 2.906785237190151 12.631109335895264 15.55669206229195 0 0 0
3185 266 5 -0.4431 1.337103919657662 11.007188337376434 16.49149317184504 0 0 0
3186 266 6 0.0922 2.616020865204351 13.550427691966952 14.13144206955685 0 0 0
3181 266 1 0.1071 2.7201768309887244 12.525665893421984 14.487973680544956 0 0 0
2641 221 1 0.1071 2.6536232544296374 8.072120013551531 14.125800718148577 0 0 0
2643 221 3 0.617 2.9468880596682565 9.435177267915467 12.029581090071972 0 0 0
2649 221 9 0.5181 2.317347724693199 10.163365917689868 13.78388698973046 0 0 0
2642 221 2 -1.144 2.62860956852311 9.321505756291923 13.32075903596045 0 0 0
5047 510 14 0.35 5.0176631460198164 9.812213799064638 18.398500741520724 0 0 0
3182 266 2 -1.144 1.4685482896067334 11.75722018736608 14.391701162445868 0 0 0
5048 510 15 -0.16 4.310905066400156 8.73156382161243 18.158507676228446 0 0 0
5050 510 15 -0.16 4.179716909194197 10.854730509908304 18.137939436852434 0 0 0
4785 399 9 0.5181 6.0894160740506456 12.386680963911937 14.293943032957817 0 0 0
4778 399 2 -1.144 6.327031851675901 12.105884883217756 13.353309043136166 0 0 0
5049 510 15 -0.16 6.000485367446745 9.88703540791459 17.436447123393307 0 0 0
3183 266 3 0.617 0.843381375203034 11.089798201126385 15.366177174730046 0 0 0
4777 399 1 0.1071 6.4520879871003745 13.1148163855174 12.312943440112901 0 0 0
4779 399 3 0.617 6.123786037876339 10.768087700344186 13.15757671695416 0 0 0
4780 399 4 -0.2777 6.1138663950452035 9.891532453008827 14.412656880760748 0 0 0
5044 510 16 1.02 5.742168627131652 9.852815203109584 20.09395459895491 0 0 0
4781 399 5 -0.4431 6.1884593893150015 10.240170362635157 12.027408833993128 0 0 0
4786 399 10 0.1153 6.620146537814095 8.928748577832856 14.343175880127527 0 0 0
1708 143 4 -0.2777 1.1139767381018355 9.54203794866516 19.826172323579335 0 0 0
684 57 12 0.1154 13.8020147164608 5.040344468509473 13.200597580081828 0 0 0
2369 198 5 -0.4431 5.726797143653465 13.353069724957573 16.02643297324046 0 0 0
4784 399 8 0.0922 5.997731251146241 12.927655678270622 11.339993894908714 0 0 0
4788 399 12 0.1154 6.608627010664801 10.427679613963962 15.222507577143071 0 0 0
5608 548 15 -0.16 13.892048885654575 7.3764564943038256 20.000021729748983 0 0 0
3516 293 12 0.1154 2.6778601912088904 6.1682867644751305 11.054425858967331 0 0 0
5046 510 18 -0.53 4.540797751991533 9.70596993841698 20.90946892093666 0 0 0
3872 323 8 0.0922 0.00027176471591872087 8.35787156104052 12.139516773937597 0 0 0
228 19 12 0.1154 1.1682793607474122 8.231900045973369 17.19922577028151 0 0 0
4787 399 11 0.1153 5.095260616715934 9.797378929554172 14.789057381890556 0 0 0
4288 358 4 -0.2777 10.199773990875858 7.337780565003864 10.686390254736274 0 0 0
2651 221 11 0.1153 2.2821199461649715 11.498885399246664 11.870447738184186 0 0 0
2313 193 9 0.5181 11.234660158081617 9.34557614220239 15.406313302371236 0 0 0
2305 193 1 0.1071 10.224661107233908 10.688738243531938 14.140822108188134 0 0 0
1917 160 9 0.5181 8.541653936882108 12.168373106936514 20.670300480109447 0 0 0
2315 193 11 0.1153 9.971876233284432 7.433520383932713 16.41223428544786 0 0 0
2314 193 10 0.1153 9.432400897296834 6.2891046061747735 15.195281204538247 0 0 0
2308 193 4 -0.2777 10.129667024293505 7.10516788293733 15.384914150346798 0 0 0
4286 358 2 -1.144 7.817352927152144 7.349856045700237 11.442264523453426 0 0 0
6301 594 17 -0.66 0.5567362649089626 0.02531416240380385 14.736038385335535 0 0 0
5040 510 16 1.02 8.089638759339028 8.377507697983253 19.826782275114475 0 0 0
5609 548 15 -0.16 12.164927354842971 8.240105833685972 19.301228289295615 0 0 0
3316 277 4 -0.2777 13.584145451001397 10.843141823267596 17.04149851369383 0 0 0
2034 170 6 0.0922 0.0958657294336831 12.982023819480771 17.943868814522194 0 0 0
3322 277 10 0.1153 13.515558098052374 11.779510269634285 16.48777484454388 0 0 0
778 65 10 0.1153 5.5165895130085225 2.960081001163548 20.156982889046958 0 0 0
5061 511 18 -0.53 11.685189374259643 13.673166157244838 15.327196837847408 0 0 0
2312 193 8 0.0922 11.108397572548744 11.1141055537439 13.665246136971511 0 0 0
3317 277 5 -0.4431 13.31577065366583 8.788263858975435 15.925772663213705 0 0 0
3324 277 12 0.1154 12.607029662786884 10.57356360938903 17.442337984015168 0 0 0
4295 358 11 0.1153 10.203213102942046 8.336150744896528 11.123820426460686 0 0 0
2310 193 6 0.0922 9.961665766233484 11.407671435445899 14.91675283055992 0 0 0
2216 185 8 0.0922 12.29201947096606 9.61336968074977 11.812775794038089 0 0 0
2311 193 7 0.0922 9.411409107573633 10.713608917958728 13.415492804993034 0 0 0
2215 185 7 0.0922 13.378952942273493 8.169130382939628 11.947506564628728 0 0 0
5606 548 14 0.35 12.821334088707868 7.941578419612354 20.392646061308227 0 0 0
2214 185 6 0.0922 12.5253439545606 8.644189605996148 13.182364981583909 0 0 0